Title=Realfreq_0
VARIABLES= "x", "fr_0(x,t)"
ZONE F=BLOCK, T="0", I=10
              0              8             16
             24             32             40
             48             56             64
             72
              1     -0.0331013
      -0.308872      0.0307448      0.0940434
     -0.0157895     -0.0282082     0.00677899
     0.00832574    -0.00265988
ZONE F=BLOCK, T="2", I=10
              0              8             16
             24             32             40
             48             56             64
             72
      -0.416147       0.520024
      0.0950211      -0.168051     -0.0184322
      0.0534948     0.00219207     -0.0167854
    0.000429364      0.0051929
ZONE F=BLOCK, T="4", I=10
              0              8             16
             24             32             40
             48             56             64
             72
      -0.653644      -0.399711
       0.229787       0.109123     -0.0787024
     -0.0287339      0.0263837     0.00719139
    -0.00868309    -0.00166214
ZONE F=BLOCK, T="6", I=10
              0              8             16
             24             32             40
             48             56             64
             72
        0.96017      -0.187347
      -0.286271      0.0772286      0.0839357
     -0.0295798     -0.0241511         0.0108
     0.00679752    -0.00380951
ZONE F=BLOCK, T="8", I=10
              0              8             16
             24             32             40
             48             56             64
             72
        -0.1455       0.555639
     0.00847497        -0.1734     0.00884328
      0.0533529    -0.00628293     -0.0161802
     0.00302556     0.00483277
ZONE F=BLOCK, T="10", I=10
              0              8             16
             24             32             40
             48             56             64
             72
      -0.839072      -0.275108
       0.279217      0.0670911     -0.0912959
     -0.0148256      0.0293803     0.00266663
    -0.00931567    -0.00021277
ZONE F=BLOCK, T="12", I=10
              0              8             16
             24             32             40
             48             56             64
             72
       0.843854      -0.326668
      -0.240866        0.11756      0.0671417
     -0.0410137     -0.0181701      0.0139608
     0.00472782    -0.00465568
ZONE F=BLOCK, T="14", I=10
              0              8             16
             24             32             40
             48             56             64
             72
       0.136737       0.546992
     -0.0787463      -0.164936      0.0354143
       0.048961     -0.0142574     -0.0142861
     0.00538074     0.00408766
ZONE F=BLOCK, T="16", I=10
              0              8             16
             24             32             40
             48             56             64
             72
      -0.957659       -0.12859
       0.306406      0.0197147     -0.0966168
    0.000263778      0.0300365    -0.00207055
    -0.00920618     0.00125354
ZONE F=BLOCK, T="18", I=10
              0              8             16
             24             32             40
             48             56             64
             72
       0.660317      -0.439968
      -0.176273       0.148528      0.0449993
     -0.0491806     -0.0107417      0.0160094
      0.0022815    -0.00513098
