Title = f_reconstructed_dmd_real
VARIABLES= "x", "f_DMD(x,t)"
ZONE F=BLOCK, T="0", I=99
              0       0.808081        1.61616
        2.42424        3.23232         4.0404
        4.84848        5.65657        6.46465
        7.27273        8.08081        8.88889
        9.69697        10.5051        11.3131
        12.1212        12.9293        13.7374
        14.5455        15.3535        16.1616
        16.9697        17.7778        18.5859
        19.3939         20.202        21.0101
        21.8182        22.6263        23.4343
        24.2424        25.0505        25.8586
        26.6667        27.4747        28.2828
        29.0909         29.899        30.7071
        31.5152        32.3232        33.1313
        33.9394        34.7475        35.5556
        36.3636        37.1717        37.9798
        38.7879         39.596         40.404
        41.2121        42.0202        42.8283
        43.6364        44.4444        45.2525
        46.0606        46.8687        47.6768
        48.4848        49.2929         50.101
        50.9091        51.7172        52.5253
        53.3333        54.1414        54.9495
        55.7576        56.5657        57.3737
        58.1818        58.9899         59.798
        60.6061        61.4141        62.2222
        63.0303        63.8384        64.6465
        65.4545        66.2626        67.0707
        67.8788        68.6869        69.4949
         70.303        71.1111        71.9192
        72.7273        73.5354        74.3434
        75.1515        75.9596        76.7677
        77.5758        78.3838        79.1919

       0.906392       0.796402       0.249583
      -0.377665       -0.72288      -0.622542
       -0.18232       0.312161        0.57617
       0.486279       0.132168      -0.257421
      -0.458957      -0.379555     -0.0949397
       0.211826        0.36537       0.296023
      0.0674431      -0.173963      -0.290695
      -0.230689     -0.0472518       0.142605
       0.231147       0.179627      0.0325247
      -0.116699       -0.18369      -0.139747
      -0.021868      0.0953465       0.145893
       0.108625      0.0142297     -0.0777832
      -0.115807     -0.0843561    -0.00881829
      0.0633651      0.0918723      0.0654469
     0.00503983     -0.0515505     -0.0728434
     -0.0507258    -0.00245054      0.0418855
      0.0577231      0.0392752    0.000720132
     -0.0339915     -0.0457156     -0.0303764
    0.000396074      0.0275537      0.0361854
      0.0234672    -0.00107837     -0.0223107
     -0.0286258     -0.0181078     0.00145879
      0.0180465      0.0226327      0.0139548
     -0.0016333     -0.0145826     -0.0178842
     -0.0107401      0.0016711      0.0117723
      0.0141239     0.00825427    -0.00162155
     -0.0094948     -0.0111478    -0.00633436
     0.00151942     0.00765106     0.00879381
     0.00485331    -0.00138881    -0.00616005
    -0.00693285    -0.00371225     0.00124607
     0.00495547     0.00546252     0.00283432
    -0.00110199    -0.00398324    -0.00430147
    -0.00215979    0.000963377     0.00319924
     0.00338519     0.00164232   -0.000834269

ZONE F=BLOCK, T="0.1", I=99
              0       0.808081        1.61616
        2.42424        3.23232         4.0404
        4.84848        5.65657        6.46465
        7.27273        8.08081        8.88889
        9.69697        10.5051        11.3131
        12.1212        12.9293        13.7374
        14.5455        15.3535        16.1616
        16.9697        17.7778        18.5859
        19.3939         20.202        21.0101
        21.8182        22.6263        23.4343
        24.2424        25.0505        25.8586
        26.6667        27.4747        28.2828
        29.0909         29.899        30.7071
        31.5152        32.3232        33.1313
        33.9394        34.7475        35.5556
        36.3636        37.1717        37.9798
        38.7879         39.596         40.404
        41.2121        42.0202        42.8283
        43.6364        44.4444        45.2525
        46.0606        46.8687        47.6768
        48.4848        49.2929         50.101
        50.9091        51.7172        52.5253
        53.3333        54.1414        54.9495
        55.7576        56.5657        57.3737
        58.1818        58.9899         59.798
        60.6061        61.4141        62.2222
        63.0303        63.8384        64.6465
        65.4545        66.2626        67.0707
        67.8788        68.6869        69.4949
         70.303        71.1111        71.9192
        72.7273        73.5354        74.3434
        75.1515        75.9596        76.7677
        77.5758        78.3838        79.1919

       0.872784       0.833855       0.329152
      -0.305476      -0.697954      -0.653721
      -0.245844       0.255667       0.557778
       0.512158        0.18285      -0.213241
      -0.445467      -0.400977       -0.13535
       0.177301       0.355544       0.313713
      0.0996444      -0.147003      -0.283596
      -0.245265     -0.0728961       0.121568
       0.226068       0.191611       0.052935
      -0.100297      -0.180101      -0.149582
      -0.038103      0.0825686       0.143394
       0.116681      0.0271361      -0.067837
      -0.114101     -0.0909447     -0.0190725
      0.0556298      0.0907389      0.0708266
      0.0131822       -0.04554     -0.0721181
     -0.0551121    -0.00891236      0.0372196
      0.0572855      0.0428465     0.00584531
      -0.030373     -0.0454774     -0.0332804
    -0.00366665      0.0247502      0.0360827
      0.0258255     0.00214032      -0.020141
     -0.0286125     -0.0200208    -0.00108979
      0.0163691       0.022676      0.0155048
    0.000383537     -0.0132874     -0.0179611
     -0.0119946    7.59623e-05      0.0107733
      0.0142185     0.00926863   -0.000360656
    -0.00872534     -0.0112494    -0.00715371
    0.000523298     0.00705919     0.00889528
     0.00551452   -0.000602309    -0.00570543
    -0.00702981    -0.00424535    0.000625437
     0.00460681      0.0055524     0.00326375
    -0.00061252    -0.00371627    -0.00438298
    -0.00250542    0.000577579     0.00299519
     0.00345787     0.00192028   -0.000530362

ZONE F=BLOCK, T="0.2", I=99
              0       0.808081        1.61616
        2.42424        3.23232         4.0404
        4.84848        5.65657        6.46465
        7.27273        8.08081        8.88889
        9.69697        10.5051        11.3131
        12.1212        12.9293        13.7374
        14.5455        15.3535        16.1616
        16.9697        17.7778        18.5859
        19.3939         20.202        21.0101
        21.8182        22.6263        23.4343
        24.2424        25.0505        25.8586
        26.6667        27.4747        28.2828
        29.0909         29.899        30.7071
        31.5152        32.3232        33.1313
        33.9394        34.7475        35.5556
        36.3636        37.1717        37.9798
        38.7879         39.596         40.404
        41.2121        42.0202        42.8283
        43.6364        44.4444        45.2525
        46.0606        46.8687        47.6768
        48.4848        49.2929         50.101
        50.9091        51.7172        52.5253
        53.3333        54.1414        54.9495
        55.7576        56.5657        57.3737
        58.1818        58.9899         59.798
        60.6061        61.4141        62.2222
        63.0303        63.8384        64.6465
        65.4545        66.2626        67.0707
        67.8788        68.6869        69.4949
         70.303        71.1111        71.9192
        72.7273        73.5354        74.3434
        75.1515        75.9596        76.7677
        77.5758        78.3838        79.1919

       0.830455       0.862977       0.405433
      -0.230235      -0.666054      -0.678367
      -0.306911       0.196619       0.533813
       0.532919       0.231704       -0.16693
      -0.427526      -0.418393      -0.174408
       0.141004       0.342165       0.328268
        0.13085      -0.118573      -0.273664
      -0.257389     -0.0978121      0.0993165
       0.218731        0.20168      0.0728165
     -0.0828932      -0.174712      -0.157922
     -0.0539574      0.0689656       0.139463
       0.123572      0.0397713      -0.057213
      -0.111256     -0.0966246     -0.0291362
      0.0473387      0.0886989      0.0754987
      0.0211929     -0.0390745     -0.0706723
     -0.0589478     -0.0152851      0.0321818
      0.0562755      0.0459897      0.0109121
     -0.0264509     -0.0447849     -0.0358518
    -0.00769273      0.0216994      0.0356195
      0.0279258     0.00533763       -0.01777
     -0.0283134     -0.0217338    -0.00362747
      0.0145281      0.0224928      0.0168999
     0.00239654     -0.0118594     -0.0178586
     -0.0131293    -0.00151993     0.00966674
      0.0141711      0.0101904     0.00090384
     -0.0078687     -0.0112386    -0.00790158
   -0.000478053     0.00639678     0.00890788
     0.00612062    0.000190211     -0.0051938
    -0.00705654    -0.00473602   -1.45025e-06
     0.00421212     0.00558681     0.00366056
   -0.000116931    -0.00341217     -0.0044207
    -0.00282601     0.00018601      0.0027612
     0.00349601     0.00217904   -0.000221156

ZONE F=BLOCK, T="0.3", I=99
              0       0.808081        1.61616
        2.42424        3.23232         4.0404
        4.84848        5.65657        6.46465
        7.27273        8.08081        8.88889
        9.69697        10.5051        11.3131
        12.1212        12.9293        13.7374
        14.5455        15.3535        16.1616
        16.9697        17.7778        18.5859
        19.3939         20.202        21.0101
        21.8182        22.6263        23.4343
        24.2424        25.0505        25.8586
        26.6667        27.4747        28.2828
        29.0909         29.899        30.7071
        31.5152        32.3232        33.1313
        33.9394        34.7475        35.5556
        36.3636        37.1717        37.9798
        38.7879         39.596         40.404
        41.2121        42.0202        42.8283
        43.6364        44.4444        45.2525
        46.0606        46.8687        47.6768
        48.4848        49.2929         50.101
        50.9091        51.7172        52.5253
        53.3333        54.1414        54.9495
        55.7576        56.5657        57.3737
        58.1818        58.9899         59.798
        60.6061        61.4141        62.2222
        63.0303        63.8384        64.6465
        65.4545        66.2626        67.0707
        67.8788        68.6869        69.4949
         70.303        71.1111        71.9192
        72.7273        73.5354        74.3434
        75.1515        75.9596        76.7677
        77.5758        78.3838        79.1919

       0.779829       0.883477       0.477663
      -0.152694      -0.627499      -0.696236
      -0.364911       0.135606       0.504514
       0.548356       0.278243      -0.118951
      -0.405313      -0.431628      -0.211723
       0.103298       0.325368       0.339544
       0.160748     -0.0889593      -0.260997
      -0.266942      -0.121751      0.0760725
       0.209209       0.209735      0.0919704
     -0.0646607      -0.167578      -0.164684
     -0.0692727      0.0546737       0.134138
       0.129228      0.0520092     -0.0460173
      -0.107299      -0.101339     -0.0389088
      0.0385745      0.0857725      0.0794165
      0.0289919     -0.0322186     -0.0685203
     -0.0621944     -0.0215052      0.0268225
      0.0547032      0.0486734      0.0158698
     -0.0222646     -0.0436448      -0.038065
     -0.0116419      0.0184317      0.0348004
      0.0297471     0.00848161     -0.0152214
     -0.0277313     -0.0232296    -0.00612891
       0.012542      0.0220849      0.0181262
     0.00438559     -0.0103128     -0.0175777
     -0.0141328    -0.00310063     0.00846355
      0.0139821      0.0110103     0.00215931
    -0.00693344     -0.0111155    -0.00857051
    -0.00147463     0.00567046     0.00883147
     0.00666557    0.000980831    -0.00463028
    -0.00701275    -0.00517938   -0.000628323
     0.00377534     0.00556539     0.00402081
    0.000379827    -0.00307398    -0.00441424
    -0.00311837   -0.000207418     0.00249963
     0.00349921     0.00241603    9.02594e-05

ZONE F=BLOCK, T="0.4", I=99
              0       0.808081        1.61616
        2.42424        3.23232         4.0404
        4.84848        5.65657        6.46465
        7.27273        8.08081        8.88889
        9.69697        10.5051        11.3131
        12.1212        12.9293        13.7374
        14.5455        15.3535        16.1616
        16.9697        17.7778        18.5859
        19.3939         20.202        21.0101
        21.8182        22.6263        23.4343
        24.2424        25.0505        25.8586
        26.6667        27.4747        28.2828
        29.0909         29.899        30.7071
        31.5152        32.3232        33.1313
        33.9394        34.7475        35.5556
        36.3636        37.1717        37.9798
        38.7879         39.596         40.404
        41.2121        42.0202        42.8283
        43.6364        44.4444        45.2525
        46.0606        46.8687        47.6768
        48.4848        49.2929         50.101
        50.9091        51.7172        52.5253
        53.3333        54.1414        54.9495
        55.7576        56.5657        57.3737
        58.1818        58.9899         59.798
        60.6061        61.4141        62.2222
        63.0303        63.8384        64.6465
        65.4545        66.2626        67.0707
        67.8788        68.6869        69.4949
         70.303        71.1111        71.9192
        72.7273        73.5354        74.3434
        75.1515        75.9596        76.7677
        77.5758        78.3838        79.1919

       0.721411       0.895149       0.545121
     -0.0736275      -0.582674      -0.707148
      -0.419266       0.073238       0.470174
       0.558313       0.322003      -0.069784
      -0.379051      -0.440551      -0.246923
      0.0645603       0.305319       0.347427
        0.18904     -0.0584565      -0.245722
      -0.273828      -0.144473      0.0520684
       0.197596       0.215694       0.110205
     -0.0457823      -0.158769      -0.169801
     -0.0838958      0.0398354       0.127473
       0.133592      0.0637274     -0.0343619
       -0.10227      -0.105041     -0.0482926
      0.0294249      0.0819892      0.0825407
      0.0365012     -0.0250408     -0.0656837
     -0.0648196     -0.0275103      0.0211952
      0.0525843      0.0508708       0.020669
     -0.0178557     -0.0420687     -0.0398979
     -0.0154748      0.0149799      0.0336336
      0.0312712      0.0115408     -0.0125208
     -0.0268722     -0.0244933    -0.00856911
      0.0104306      0.0214563      0.0191713
     0.00633083    -0.00866328     -0.0171211
     -0.0149951    -0.00465036     0.00717579
      0.0136533      0.0117202      0.0033932
    -0.00592891     -0.0108813    -0.00915379
    -0.00245647     0.00488748     0.00866682
     0.00714391     0.00176165    -0.00402049
     -0.0068989    -0.00557098    -0.00124892
     0.00330083     0.00548837     0.00434087
     0.00087279    -0.00270507    -0.00436368
    -0.00337957   -0.000598774     0.00221308
     0.00346745     0.00262889    0.000400773

ZONE F=BLOCK, T="0.5", I=99
              0       0.808081        1.61616
        2.42424        3.23232         4.0404
        4.84848        5.65657        6.46465
        7.27273        8.08081        8.88889
        9.69697        10.5051        11.3131
        12.1212        12.9293        13.7374
        14.5455        15.3535        16.1616
        16.9697        17.7778        18.5859
        19.3939         20.202        21.0101
        21.8182        22.6263        23.4343
        24.2424        25.0505        25.8586
        26.6667        27.4747        28.2828
        29.0909         29.899        30.7071
        31.5152        32.3232        33.1313
        33.9394        34.7475        35.5556
        36.3636        37.1717        37.9798
        38.7879         39.596         40.404
        41.2121        42.0202        42.8283
        43.6364        44.4444        45.2525
        46.0606        46.8687        47.6768
        48.4848        49.2929         50.101
        50.9091        51.7172        52.5253
        53.3333        54.1414        54.9495
        55.7576        56.5657        57.3737
        58.1818        58.9899         59.798
        60.6061        61.4141        62.2222
        63.0303        63.8384        64.6465
        65.4545        66.2626        67.0707
        67.8788        68.6869        69.4949
         70.303        71.1111        71.9192
        72.7273        73.5354        74.3434
        75.1515        75.9596        76.7677
        77.5758        78.3838        79.1919

       0.655785       0.897877       0.607131
     0.00617492      -0.532028      -0.710995
      -0.469431      0.0101384       0.431137
       0.562692       0.362544     -0.0199195
      -0.349001      -0.445072      -0.279656
      0.0251773        0.28222       0.351839
       0.215444     -0.0273695      -0.227992
      -0.277978      -0.165752      0.0275441
       0.184008       0.219498       0.127339
     -0.0264463      -0.148374      -0.173221
     -0.0976806      0.0245991       0.119535
       0.136622      0.0748089     -0.0223631
     -0.0962186      -0.107693     -0.0571938
      0.0199814      0.0773867      0.0848403
      0.0436457     -0.0176127     -0.0621908
     -0.0667972     -0.0332406      0.0153561
      0.0499401      0.0525599      0.0252617
     -0.0132685     -0.0400723     -0.0413321
     -0.0191531      0.0113785      0.0321307
      0.0324828      0.0144848    -0.00969508
     -0.0257446     -0.0255123     -0.0109237
     0.00821497      0.0206133      0.0200249
      0.0082128    -0.00692716     -0.0164934
     -0.0157076    -0.00615362     0.00581633
      0.0131882      0.0123131     0.00459318
    -0.00486513     -0.0105384    -0.00964562
    -0.00341377     0.00405567     0.00841558
     0.00755088     0.00252487    -0.00337053
    -0.00671611    -0.00590692    -0.00185703
     0.00279335     0.00535651     0.00461757
     0.00135703    -0.00230914    -0.00426952
      -0.003607   -0.000984147     0.00190442
     0.00340105     0.00281547    0.000707283

ZONE F=BLOCK, T="0.6", I=99
              0       0.808081        1.61616
        2.42424        3.23232         4.0404
        4.84848        5.65657        6.46465
        7.27273        8.08081        8.88889
        9.69697        10.5051        11.3131
        12.1212        12.9293        13.7374
        14.5455        15.3535        16.1616
        16.9697        17.7778        18.5859
        19.3939         20.202        21.0101
        21.8182        22.6263        23.4343
        24.2424        25.0505        25.8586
        26.6667        27.4747        28.2828
        29.0909         29.899        30.7071
        31.5152        32.3232        33.1313
        33.9394        34.7475        35.5556
        36.3636        37.1717        37.9798
        38.7879         39.596         40.404
        41.2121        42.0202        42.8283
        43.6364        44.4444        45.2525
        46.0606        46.8687        47.6768
        48.4848        49.2929         50.101
        50.9091        51.7172        52.5253
        53.3333        54.1414        54.9495
        55.7576        56.5657        57.3737
        58.1818        58.9899         59.798
        60.6061        61.4141        62.2222
        63.0303        63.8384        64.6465
        65.4545        66.2626        67.0707
        67.8788        68.6869        69.4949
         70.303        71.1111        71.9192
        72.7273        73.5354        74.3434
        75.1515        75.9596        76.7677
        77.5758        78.3838        79.1919

       0.583606       0.891634       0.663076
      0.0859157      -0.476065      -0.707737
      -0.514906     -0.0530625       0.387792
       0.561449       0.399464       0.030144
      -0.315464      -0.445146      -0.309595
     -0.0144572       0.256301       0.352735
       0.239694     0.00399085      -0.207984
       -0.27935      -0.185374     0.00274458
       0.168582       0.221108       0.143201
    -0.00684617      -0.136496       -0.17491
      -0.110489     0.00911705       0.110402
       0.138287      0.0851429     -0.0101409
     -0.0892063       -0.10927     -0.0655237
      0.0103381       0.072011      0.0862921
      0.0503542     -0.0100087     -0.0580765
     -0.0681073     -0.0386388     0.00936353
      0.0467968      0.0537238      0.0296019
    -0.00854874     -0.0376755     -0.0423534
       -0.02264     0.00766333      0.0303068
      0.0333699      0.0172839    -0.00677248
     -0.0243597     -0.0262764     -0.0131691
     0.00591724      0.0195643      0.0206784
      0.0100127    -0.00512183      -0.015701
     -0.0162632    -0.00759539     0.00439876
      0.0125913      0.0127828     0.00574728
    -0.00375275     -0.0100902     -0.0100411
    -0.00433695     0.00318333     0.00808024
      0.0078824     0.00326286     -0.0026869
    -0.00646623    -0.00618384    -0.00244659
     0.00225796     0.00517113     0.00484813
     0.00182772    -0.00189013     -0.0041327
    -0.00379839    -0.00135969     0.00157673
     0.00330066     0.00297393     0.00100673

ZONE F=BLOCK, T="0.7", I=99
              0       0.808081        1.61616
        2.42424        3.23232         4.0404
        4.84848        5.65657        6.46465
        7.27273        8.08081        8.88889
        9.69697        10.5051        11.3131
        12.1212        12.9293        13.7374
        14.5455        15.3535        16.1616
        16.9697        17.7778        18.5859
        19.3939         20.202        21.0101
        21.8182        22.6263        23.4343
        24.2424        25.0505        25.8586
        26.6667        27.4747        28.2828
        29.0909         29.899        30.7071
        31.5152        32.3232        33.1313
        33.9394        34.7475        35.5556
        36.3636        37.1717        37.9798
        38.7879         39.596         40.404
        41.2121        42.0202        42.8283
        43.6364        44.4444        45.2525
        46.0606        46.8687        47.6768
        48.4848        49.2929         50.101
        50.9091        51.7172        52.5253
        53.3333        54.1414        54.9495
        55.7576        56.5657        57.3737
        58.1818        58.9899         59.798
        60.6061        61.4141        62.2222
        63.0303        63.8384        64.6465
        65.4545        66.2626        67.0707
        67.8788        68.6869        69.4949
         70.303        71.1111        71.9192
        72.7273        73.5354        74.3434
        75.1515        75.9596        76.7677
        77.5758        78.3838        79.1919

       0.505597       0.876482       0.712395
       0.164798      -0.415346      -0.697408
      -0.555236      -0.115733       0.340572
       0.554596       0.432392      0.0799063
      -0.278775      -0.440772       -0.33644
     -0.0539473       0.227822       0.350106
        0.26155      0.0353114      -0.185898
      -0.277931      -0.203144     -0.0220824
       0.151472        0.22051       0.157631
      0.0128224      -0.123255      -0.174852
      -0.122194    -0.00645612       0.100165
        0.13857      0.0946262      0.0021827
     -0.0813026      -0.109754     -0.0731988
    0.000591612      0.0659157      0.0868817
      0.0565596    -0.00230468      -0.053382
      -0.068737     -0.0436509     0.00327744
       0.043186      0.0543509      0.0336464
    -0.00374353     -0.0349022     -0.0429514
     -0.0259007     0.00387161      0.0281801
      0.0339235      0.0199104    -0.00378221
     -0.0227314     -0.0267779      -0.015283
      0.0035604      0.0183199      0.0211253
      0.0117126    -0.00326532     -0.0147517
     -0.0166562    -0.00896128     0.00293724
      0.0118686      0.0131249     0.00684395
    -0.00260287    -0.00954119     -0.0103362
    -0.00521681     0.00227919     0.00766418
     0.00813517     0.00396825    -0.00197641
    -0.00615173    -0.00639898    -0.00301171
         0.0017     0.00493408     0.00503025
     0.00228014    -0.00145224    -0.00395458
    -0.00395183    -0.00172164     0.00123328
      0.0031673     0.00310267     0.00129611

ZONE F=BLOCK, T="0.8", I=99
              0       0.808081        1.61616
        2.42424        3.23232         4.0404
        4.84848        5.65657        6.46465
        7.27273        8.08081        8.88889
        9.69697        10.5051        11.3131
        12.1212        12.9293        13.7374
        14.5455        15.3535        16.1616
        16.9697        17.7778        18.5859
        19.3939         20.202        21.0101
        21.8182        22.6263        23.4343
        24.2424        25.0505        25.8586
        26.6667        27.4747        28.2828
        29.0909         29.899        30.7071
        31.5152        32.3232        33.1313
        33.9394        34.7475        35.5556
        36.3636        37.1717        37.9798
        38.7879         39.596         40.404
        41.2121        42.0202        42.8283
        43.6364        44.4444        45.2525
        46.0606        46.8687        47.6768
        48.4848        49.2929         50.101
        50.9091        51.7172        52.5253
        53.3333        54.1414        54.9495
        55.7576        56.5657        57.3737
        58.1818        58.9899         59.798
        60.6061        61.4141        62.2222
        63.0303        63.8384        64.6465
        65.4545        66.2626        67.0707
        67.8788        68.6869        69.4949
         70.303        71.1111        71.9192
        72.7273        73.5354        74.3434
        75.1515        75.9596        76.7677
        77.5758        78.3838        79.1919

       0.422535       0.852572       0.754596
       0.242034      -0.350477      -0.680111
      -0.590019      -0.177248       0.289949
       0.542202          0.461        0.12887
      -0.239301      -0.431994      -0.359923
     -0.0928984       0.197065        0.34398
       0.280792      0.0662791      -0.161955
      -0.273736      -0.218885     -0.0466887
       0.132848       0.217708       0.170487
      0.0323629      -0.108782      -0.173047
      -0.132678     -0.0219648      0.0889284
       0.137468       0.103164      0.0144844
     -0.0725865      -0.109142     -0.0801425
    -0.00916082      0.0591618      0.0866032
      0.0621998     0.00542237      -0.048154
     -0.0686798     -0.0482268    -0.00284141
      0.0391436       0.054435      0.0373547
     0.00109908     -0.0317802     -0.0431203
     -0.0289026    4.12054e-05      0.0257718
      0.0341382       0.022338   -0.000754154
     -0.0208761     -0.0270119     -0.0172441
     0.00116798      0.0168924      0.0213611
      0.0132954    -0.00137618      -0.013655
     -0.0168828     -0.0102376     0.00144637
      0.0110273      0.0133358     0.00787223
    -0.00142698    -0.00889685      -0.010528
    -0.00604454     0.00135228     0.00717153
     0.00830665     0.00463399    -0.00124618
    -0.00577576    -0.00655017    -0.00354673
     0.00112506     0.00464773      0.0051621
     0.00270978   -0.000999835    -0.00373696
    -0.00406579    -0.00206639    0.000877519
     0.00300229     0.00320041     0.00157254

ZONE F=BLOCK, T="0.9", I=99
              0       0.808081        1.61616
        2.42424        3.23232         4.0404
        4.84848        5.65657        6.46465
        7.27273        8.08081        8.88889
        9.69697        10.5051        11.3131
        12.1212        12.9293        13.7374
        14.5455        15.3535        16.1616
        16.9697        17.7778        18.5859
        19.3939         20.202        21.0101
        21.8182        22.6263        23.4343
        24.2424        25.0505        25.8586
        26.6667        27.4747        28.2828
        29.0909         29.899        30.7071
        31.5152        32.3232        33.1313
        33.9394        34.7475        35.5556
        36.3636        37.1717        37.9798
        38.7879         39.596         40.404
        41.2121        42.0202        42.8283
        43.6364        44.4444        45.2525
        46.0606        46.8687        47.6768
        48.4848        49.2929         50.101
        50.9091        51.7172        52.5253
        53.3333        54.1414        54.9495
        55.7576        56.5657        57.3737
        58.1818        58.9899         59.798
        60.6061        61.4141        62.2222
        63.0303        63.8384        64.6465
        65.4545        66.2626        67.0707
        67.8788        68.6869        69.4949
         70.303        71.1111        71.9192
        72.7273        73.5354        74.3434
        75.1515        75.9596        76.7677
        77.5758        78.3838        79.1919

       0.335252       0.820144       0.789258
       0.316851      -0.282106      -0.656018
      -0.618906      -0.236991       0.236429
        0.52439       0.485001       0.176547
      -0.197435      -0.418899      -0.379811
      -0.130921        0.16434       0.334417
       0.297229      0.0965845      -0.136393
      -0.266805      -0.232438     -0.0708285
       0.112897       0.212731       0.181639
        0.05158     -0.0932217      -0.169513
      -0.141837      -0.037254       0.076803
       0.134993       0.110671      0.0266415
     -0.0631453       -0.10744     -0.0862855
     -0.0188217      0.0518168      0.0854595
      0.0672185      0.0130952     -0.0424449
     -0.0679365     -0.0523209    -0.00893186
      0.0347102      0.0539752      0.0406897