Title=Realfreq_composed
VARIABLES= "x", "fr_composed(x,t)"
ZONE F=BLOCK, T="0", I=400
            -10          -9.95           -9.9
          -9.85           -9.8          -9.75
           -9.7          -9.65           -9.6
          -9.55           -9.5          -9.45
           -9.4          -9.35           -9.3
          -9.25           -9.2          -9.15
           -9.1          -9.05             -9
          -8.95           -8.9          -8.85
           -8.8          -8.75           -8.7
          -8.65           -8.6          -8.55
           -8.5          -8.45           -8.4
          -8.35           -8.3          -8.25
           -8.2          -8.15           -8.1
          -8.05             -8          -7.95
           -7.9          -7.85           -7.8
          -7.75           -7.7          -7.65
           -7.6          -7.55           -7.5
          -7.45           -7.4          -7.35
           -7.3          -7.25           -7.2
          -7.15           -7.1          -7.05
             -7          -6.95           -6.9
          -6.85           -6.8          -6.75
           -6.7          -6.65           -6.6
          -6.55           -6.5          -6.45
           -6.4          -6.35           -6.3
          -6.25           -6.2          -6.15
           -6.1          -6.05             -6
          -5.95           -5.9          -5.85
           -5.8          -5.75           -5.7
          -5.65           -5.6          -5.55
           -5.5          -5.45           -5.4
          -5.35           -5.3          -5.25
           -5.2          -5.15           -5.1
          -5.05             -5          -4.95
           -4.9          -4.85           -4.8
          -4.75           -4.7          -4.65
           -4.6          -4.55           -4.5
          -4.45           -4.4          -4.35
           -4.3          -4.25           -4.2
          -4.15           -4.1          -4.05
             -4          -3.95           -3.9
          -3.85           -3.8          -3.75
           -3.7          -3.65           -3.6
          -3.55           -3.5          -3.45
           -3.4          -3.35           -3.3
          -3.25           -3.2          -3.15
           -3.1          -3.05             -3
          -2.95           -2.9          -2.85
           -2.8          -2.75           -2.7
          -2.65           -2.6          -2.55
           -2.5          -2.45           -2.4
          -2.35           -2.3          -2.25
           -2.2          -2.15           -2.1
          -2.05             -2          -1.95
           -1.9          -1.85           -1.8
          -1.75           -1.7          -1.65
           -1.6          -1.55           -1.5
          -1.45           -1.4          -1.35
           -1.3          -1.25           -1.2
          -1.15           -1.1          -1.05
             -1          -0.95           -0.9
          -0.85           -0.8          -0.75
           -0.7          -0.65           -0.6
          -0.55           -0.5          -0.45
           -0.4          -0.35           -0.3
          -0.25           -0.2          -0.15
           -0.1          -0.05              0
           0.05            0.1           0.15
            0.2           0.25            0.3
           0.35            0.4           0.45
            0.5           0.55            0.6
           0.65            0.7           0.75
            0.8           0.85            0.9
           0.95              1           1.05
            1.1           1.15            1.2
           1.25            1.3           1.35
            1.4           1.45            1.5
           1.55            1.6           1.65
            1.7           1.75            1.8
           1.85            1.9           1.95
              2           2.05            2.1
           2.15            2.2           2.25
            2.3           2.35            2.4
           2.45            2.5           2.55
            2.6           2.65            2.7
           2.75            2.8           2.85
            2.9           2.95              3
           3.05            3.1           3.15
            3.2           3.25            3.3
           3.35            3.4           3.45
            3.5           3.55            3.6
           3.65            3.7           3.75
            3.8           3.85            3.9
           3.95              4           4.05
            4.1           4.15            4.2
           4.25            4.3           4.35
            4.4           4.45            4.5
           4.55            4.6           4.65
            4.7           4.75            4.8
           4.85            4.9           4.95
              5           5.05            5.1
           5.15            5.2           5.25
            5.3           5.35            5.4
           5.45            5.5           5.55
            5.6           5.65            5.7
           5.75            5.8           5.85
            5.9           5.95              6
           6.05            6.1           6.15
            6.2           6.25            6.3
           6.35            6.4           6.45
            6.5           6.55            6.6
           6.65            6.7           6.75
            6.8           6.85            6.9
           6.95              7           7.05
            7.1           7.15            7.2
           7.25            7.3           7.35
            7.4           7.45            7.5
           7.55            7.6           7.65
            7.7           7.75            7.8
           7.85            7.9           7.95
              8           8.05            8.1
           8.15            8.2           8.25
            8.3           8.35            8.4
           8.45            8.5           8.55
            8.6           8.65            8.7
           8.75            8.8           8.85
            8.9           8.95              9
           9.05            9.1           9.15
            9.2           9.25            9.3
           9.35            9.4           9.45
            9.5           9.55            9.6
           9.65            9.7           9.75
            9.8           9.85            9.9
           9.95
     0.00164216     0.00172636
     0.00181487     0.00190792     0.00200574
     0.00210858     0.00221669     0.00233034
     0.00244982     0.00257542     0.00270746
     0.00284628     0.00299221     0.00314562
      0.0033069     0.00347645     0.00365469
     0.00384206     0.00403905     0.00424613
     0.00446383      0.0046927     0.00493329
     0.00518622     0.00545212     0.00573165
     0.00602551     0.00633444      0.0066592
     0.00700062     0.00735953     0.00773685
     0.00813351      0.0085505     0.00898887
     0.00944971     0.00993418      0.0104435
      0.0109789      0.0115417      0.0121334
      0.0127555      0.0134094      0.0140968
      0.0148194      0.0155791      0.0163777
      0.0172173      0.0180998      0.0190276
      0.0200029      0.0210282       0.022106
       0.023239        0.02443       0.025682
      0.0269981      0.0283815      0.0298358
      0.0313645      0.0329715      0.0346606
      0.0364361      0.0383024      0.0402641
       0.042326      0.0444932      0.0467711
      0.0491652      0.0516815       0.054326
      0.0571053      0.0600261      0.0630955
       0.066321      0.0697103      0.0732716
      0.0770134      0.0809446      0.0850746
      0.0894131      0.0939703      0.0987567
       0.103784       0.109062       0.114605
       0.120423       0.126531       0.132941
       0.139668       0.146725       0.154127
        0.16189       0.170028       0.178557
       0.187494       0.196854       0.206654
        0.21691       0.227638       0.238854
       0.250573        0.26281       0.275579
       0.288893       0.302761       0.317195
       0.332201       0.347783       0.363942
       0.380676       0.397978       0.415835
       0.434229       0.453134        0.47252
       0.492344       0.512557       0.533098
       0.553895       0.574865       0.595912
       0.616926       0.637785       0.658351
       0.678475       0.697993        0.71673
         0.7345        0.75111       0.766359
       0.780044        0.79196       0.801908
       0.809696       0.815145        0.81809
       0.818387       0.815917       0.810585
       0.802327       0.791105       0.776917
       0.759787        0.73977       0.716946
       0.691421        0.66332       0.632785
       0.599971       0.565042       0.528167
       0.489516        0.44926       0.407564
       0.364587       0.320483       0.275397
       0.229465       0.182817       0.135573
      0.0878501      0.0397597    -0.00858915
     -0.0570874      -0.105624      -0.154081
      -0.202336      -0.250253      -0.297681
      -0.344454      -0.390384      -0.435261
      -0.478846      -0.520873      -0.561043
      -0.599027      -0.634459      -0.666941
      -0.696043      -0.721306      -0.742247
      -0.758363      -0.769144      -0.774082
      -0.772683      -0.764484      -0.749073
      -0.726102      -0.695314      -0.656557
      -0.609806      -0.555179      -0.492948
      -0.423549      -0.347583      -0.265813
      -0.179148     -0.0886292     0.00460145
      0.0993279       0.194298       0.288259
       0.379998       0.468374       0.552351
       0.631022       0.703631       0.769584
       0.828451       0.879968       0.924027
       0.960664       0.990039        1.01242
        1.02817        1.03772        1.04153
        1.04012        1.03401        1.02373
        1.00978       0.992669       0.972867
       0.950816       0.926927       0.901572
       0.875092        0.84779       0.819935
       0.791765       0.763486       0.735276
       0.707288       0.679649       0.652468
       0.625832       0.599813       0.574467
       0.549837       0.525957       0.502847
       0.480522        0.45899       0.438249
       0.418297       0.399125        0.38072
       0.363067        0.34615        0.32995
       0.314446       0.299618       0.285443
       0.271899       0.258963       0.246613
       0.234827       0.223583       0.212858
       0.202631       0.192882       0.183589
       0.174734       0.166297        0.15826
       0.150605       0.143314       0.136371
        0.12976       0.123466       0.117475
       0.111771       0.106342       0.101175
      0.0962568      0.0915764      0.0871223
      0.0828838      0.0788505      0.0750126
      0.0713609      0.0678863      0.0645804
       0.061435      0.0584425      0.0555953
      0.0528866      0.0503097       0.047858
      0.0455257      0.0433069      0.0411961
       0.039188      0.0372777      0.0354605
      0.0337318      0.0320873      0.0305229
      0.0290347       0.027619      0.0262724
      0.0249913      0.0237727      0.0226136
      0.0215109      0.0204619      0.0194641
       0.018515      0.0176121      0.0167532
      0.0159362      0.0151591      0.0144198
      0.0137166      0.0130477      0.0124114
      0.0118061      0.0112303      0.0106826
      0.0101616     0.00966607     0.00919467
     0.00874625      0.0083197     0.00791395
     0.00752799     0.00716086     0.00681162
     0.00647942     0.00616342     0.00586283
      0.0055769     0.00530491     0.00504619
     0.00480009     0.00456599      0.0043433
     0.00413148     0.00392999     0.00373832
       0.003556     0.00338257      0.0032176
     0.00306068     0.00291141     0.00276942
     0.00263435     0.00250587     0.00238366
     0.00226741     0.00215683     0.00205164
     0.00195158      0.0018564     0.00176586
     0.00167974     0.00159782     0.00151989
     0.00144576     0.00137525     0.00130818
     0.00124438     0.00118369     0.00112596
     0.00107105     0.00101881    0.000969125
     0.00092186      0.0008769    0.000834134
    0.000793452    0.000754755    0.000717945
    0.000682931    0.000649624    0.000617941
    0.000587804    0.000559136    0.000531867
    0.000505928    0.000481253    0.000457782
    0.000435456    0.000414219    0.000394017
      0.0003748    0.000356521    0.000339133
    0.000322594    0.000306861    0.000291895
    0.000277659    0.000264117    0.000251236
    0.000238983    0.000227328    0.000216241
    0.000205695    0.000195663
ZONE F=BLOCK, T="0.0628319", I=400
            -10          -9.95           -9.9
          -9.85           -9.8          -9.75
           -9.7          -9.65           -9.6
          -9.55           -9.5          -9.45
           -9.4          -9.35           -9.3
          -9.25           -9.2          -9.15
           -9.1          -9.05             -9
          -8.95           -8.9          -8.85
           -8.8          -8.75           -8.7
          -8.65           -8.6          -8.55
           -8.5          -8.45           -8.4
          -8.35           -8.3          -8.25
           -8.2          -8.15           -8.1
          -8.05             -8          -7.95
           -7.9          -7.85           -7.8
          -7.75           -7.7          -7.65
           -7.6          -7.55           -7.5
          -7.45           -7.4          -7.35
           -7.3          -7.25           -7.2
          -7.15           -7.1          -7.05
             -7          -6.95           -6.9
          -6.85           -6.8          -6.75
           -6.7          -6.65           -6.6
          -6.55           -6.5          -6.45
           -6.4          -6.35           -6.3
          -6.25           -6.2          -6.15
           -6.1          -6.05             -6
          -5.95           -5.9          -5.85
           -5.8          -5.75           -5.7
          -5.65           -5.6          -5.55
           -5.5          -5.45           -5.4
          -5.35           -5.3          -5.25
           -5.2          -5.15           -5.1
          -5.05             -5          -4.95
           -4.9          -4.85           -4.8
          -4.75           -4.7          -4.65
           -4.6          -4.55           -4.5
          -4.45           -4.4          -4.35
           -4.3          -4.25           -4.2
          -4.15           -4.1          -4.05
             -4          -3.95           -3.9
          -3.85           -3.8          -3.75
           -3.7          -3.65           -3.6
          -3.55           -3.5          -3.45
           -3.4          -3.35           -3.3
          -3.25           -3.2          -3.15
           -3.1          -3.05             -3
          -2.95           -2.9          -2.85
           -2.8          -2.75           -2.7
          -2.65           -2.6          -2.55
           -2.5          -2.45           -2.4
          -2.35           -2.3          -2.25
           -2.2          -2.15           -2.1
          -2.05             -2          -1.95
           -1.9          -1.85           -1.8
          -1.75           -1.7          -1.65
           -1.6          -1.55           -1.5
          -1.45           -1.4          -1.35
           -1.3          -1.25           -1.2
          -1.15           -1.1          -1.05
             -1          -0.95           -0.9
          -0.85           -0.8          -0.75
           -0.7          -0.65           -0.6
          -0.55           -0.5          -0.45
           -0.4          -0.35           -0.3
          -0.25           -0.2          -0.15
           -0.1          -0.05              0
           0.05            0.1           0.15
            0.2           0.25            0.3
           0.35            0.4           0.45
            0.5           0.55            0.6
           0.65            0.7           0.75
            0.8           0.85            0.9
           0.95              1           1.05
            1.1           1.15            1.2
           1.25            1.3           1.35
            1.4           1.45            1.5
           1.55            1.6           1.65
            1.7           1.75            1.8
           1.85            1.9           1.95
              2           2.05            2.1
           2.15            2.2           2.25
            2.3           2.35            2.4
           2.45            2.5           2.55
            2.6           2.65            2.7
           2.75            2.8           2.85
            2.9           2.95              3
           3.05            3.1           3.15
            3.2           3.25            3.3
           3.35            3.4           3.45
            3.5           3.55            3.6
           3.65            3.7           3.75
            3.8           3.85            3.9
           3.95              4           4.05
            4.1           4.15            4.2
           4.25            4.3           4.35
            4.4           4.45            4.5
           4.55            4.6           4.65
            4.7           4.75            4.8
           4.85            4.9           4.95
              5           5.05            5.1
           5.15            5.2           5.25
            5.3           5.35            5.4
           5.45            5.5           5.55
            5.6           5.65            5.7
           5.75            5.8           5.85
            5.9           5.95              6
           6.05            6.1           6.15
            6.2           6.25            6.3
           6.35            6.4           6.45
            6.5           6.55            6.6
           6.65            6.7           6.75
            6.8           6.85            6.9
           6.95              7           7.05
            7.1           7.15            7.2
           7.25            7.3           7.35
            7.4           7.45            7.5
           7.55            7.6           7.65
            7.7           7.75            7.8
           7.85            7.9           7.95
              8           8.05            8.1
           8.15            8.2           8.25
            8.3           8.35            8.4
           8.45            8.5           8.55
            8.6           8.65            8.7
           8.75            8.8           8.85
            8.9           8.95              9
           9.05            9.1           9.15
            9.2           9.25            9.3
           9.35            9.4           9.45
            9.5           9.55            9.6
           9.65            9.7           9.75
            9.8           9.85            9.9
           9.95
     0.00162596     0.00170932
     0.00179696     0.00188909     0.00198595
     0.00208777     0.00219481     0.00230734
     0.00242564        0.00255     0.00268074
     0.00281819     0.00296268     0.00311458
     0.00327426     0.00344214     0.00361862
     0.00380415     0.00399919     0.00420423
     0.00441978     0.00464638      0.0048846
     0.00513504     0.00539831     0.00567508
     0.00596604     0.00627192     0.00659348
     0.00693152      0.0072869     0.00766049
     0.00805323     0.00846611     0.00890016
     0.00935645     0.00983613      0.0103404
      0.0108705      0.0114278      0.0120137
      0.0126296       0.013277      0.0139577
      0.0146732      0.0154254      0.0162161
      0.0170474      0.0179212      0.0188398
      0.0198055      0.0208206      0.0218878
      0.0230096      0.0241889      0.0254285
      0.0267316      0.0281014      0.0295414
       0.031055      0.0326461      0.0343185
      0.0360765      0.0379244      0.0398667
      0.0419083      0.0440541      0.0463095
        0.04868      0.0511714      0.0537899
      0.0565417      0.0594337      0.0624728
      0.0656665      0.0690223      0.0725485
      0.0762533      0.0801458      0.0842351
      0.0885308       0.093043      0.0977822
       0.102759       0.107986       0.113474
       0.119235       0.125283        0.13163
        0.13829       0.145277       0.152607
       0.160293       0.168351       0.176796
       0.185645       0.194913       0.204616
       0.214771       0.225394       0.236499
       0.248103        0.26022       0.272864
       0.286046       0.299779       0.314071
        0.32893       0.344359       0.360361
       0.376931       0.394064       0.411746
       0.429961       0.448683        0.46788
       0.487513        0.50753       0.527873
        0.54847        0.56924       0.590086
       0.610901       0.631563       0.651936
       0.671873       0.691211       0.709779
        0.72739       0.743855       0.758975
       0.772547       0.784371       0.794249
       0.801992       0.807421       0.810375
       0.810711        0.80831       0.803079
       0.794954         0.7839       0.769911
       0.753015       0.733264       0.710739
       0.685543       0.657801       0.627654
       0.595254       0.560765       0.524353
       0.486188       0.446438       0.405266
       0.362831       0.319284       0.274769
        0.22942       0.183367       0.136728
       0.089619      0.0421497    -0.00557195
     -0.0534383      -0.101339       -0.14916
      -0.196778       -0.24406      -0.290857
      -0.337006      -0.382323      -0.426598
      -0.469598      -0.511061      -0.550693
      -0.588168      -0.623127       -0.65518
      -0.683902       -0.70884      -0.729521
      -0.745448       -0.75612      -0.761036
      -0.759711      -0.751689      -0.736563
      -0.713992      -0.683723      -0.645606
      -0.599616      -0.545869      -0.484634
      -0.416341       -0.34158      -0.261103
      -0.175805     -0.0867113     0.00505362
      0.0982925       0.191772       0.284261
       0.374562       0.461553       0.544213
       0.621651       0.693121       0.758039
       0.815981       0.866688       0.910052
       0.946109       0.975017       0.997043
        1.01254        1.02193        1.02567
        1.02427        1.01825        1.00811
       0.994368       0.977512       0.958008
        0.93629       0.912762       0.887792
       0.861714       0.834827       0.807396
       0.779655       0.751807       0.724028
       0.696466        0.66925       0.642483
       0.616254       0.590633       0.565674
       0.541421       0.517906        0.49515
       0.473166       0.451963        0.43154
       0.411893       0.393014       0.374891
       0.357508        0.34085       0.324898
       0.309632        0.29503       0.281072
       0.267735       0.254998       0.242837
       0.231232       0.220159       0.209598
       0.199528       0.189928       0.180778
       0.172058       0.163751       0.155836
       0.148298       0.141119       0.134283
       0.127773       0.121576       0.115676
        0.11006       0.104714      0.0996254
      0.0947827       0.090174      0.0857881
      0.0816145       0.077643      0.0738639
      0.0702681      0.0668467      0.0635914
      0.0604942      0.0575475       0.054744
      0.0520767      0.0495392      0.0471251
      0.0448285      0.0426437      0.0405652
      0.0385879      0.0367069      0.0349175
      0.0332152      0.0315959      0.0300554
      0.0285901      0.0271961        0.02587
      0.0246086      0.0234087      0.0222672
      0.0211814      0.0201486       0.019166
      0.0182314      0.0173424      0.0164966
      0.0156922      0.0149269       0.014199
      0.0135065      0.0128478      0.0122213
      0.0116253      0.0110583       0.010519
       0.010006     0.00951805     0.00905386
     0.00861231     0.00819229     0.00779276
     0.00741271     0.00705119     0.00670731
      0.0063802     0.00606903     0.00577305
      0.0054915     0.00522367     0.00496892
     0.00472658     0.00449606     0.00427679
     0.00406821      0.0038698     0.00368107
     0.00350154     0.00333077     0.00316833
     0.00301381     0.00286682     0.00272701
     0.00259401      0.0024675     0.00234716
     0.00223269      0.0021238     0.00202022
     0.00192169     0.00182797     0.00173882
     0.00165401     0.00157335     0.00149661
     0.00142362     0.00135419     0.00128815
     0.00122532     0.00116556     0.00110872
     0.00105465     0.00100321    0.000954284
    0.000907743    0.000863472     0.00082136
    0.000781302    0.000743197    0.000706951
    0.000672472    0.000639676    0.000608478
    0.000578802    0.000550574    0.000523722
     0.00049818    0.000473883    0.000450772
    0.000428787    0.000407875    0.000387983
    0.000369061    0.000351061     0.00033394
    0.000317654    0.000302161    0.000287425
    0.000273407    0.000260073    0.000247389
    0.000235324    0.000223847     0.00021293
    0.000202545    0.000192667
ZONE F=BLOCK, T="0.125664", I=400
            -10          -9.95           -9.9
          -9.85           -9.8          -9.75
           -9.7          -9.65           -9.6
          -9.55           -9.5          -9.45
           -9.4          -9.35           -9.3
          -9.25           -9.2          -9.15
           -9.1          -9.05             -9
          -8.95           -8.9          -8.85
           -8.8          -8.75           -8.7
          -8.65           -8.6          -8.55
           -8.5          -8.45           -8.4
          -8.35           -8.3          -8.25
           -8.2          -8.15           -8.1
          -8.05             -8          -7.95
           -7.9          -7.85           -7.8
          -7.75           -7.7          -7.65
           -7.6          -7.55           -7.5
          -7.45           -7.4          -7.35
           -7.3          -7.25           -7.2
          -7.15           -7.1          -7.05
             -7          -6.95           -6.9
          -6.85           -6.8          -6.75
           -6.7          -6.65           -6.6
          -6.55           -6.5          -6.45
           -6.4          -6.35           -6.3
          -6.25           -6.2          -6.15
           -6.1          -6.05             -6
          -5.95           -5.9          -5.85
           -5.8          -5.75           -5.7
          -5.65           -5.6          -5.55
           -5.5          -5.45           -5.4
          -5.35           -5.3          -5.25
           -5.2          -5.15           -5.1
          -5.05             -5          -4.95
           -4.9          -4.85           -4.8
          -4.75           -4.7          -4.65
           -4.6          -4.55           -4.5
          -4.45           -4.4          -4.35
           -4.3          -4.25           -4.2
          -4.15           -4.1          -4.05
             -4          -3.95           -3.9
          -3.85           -3.8          -3.75
           -3.7          -3.65           -3.6
          -3.55           -3.5          -3.45
           -3.4          -3.35           -3.3
          -3.25           -3.2          -3.15
           -3.1          -3.05             -3
          -2.95           -2.9          -2.85
           -2.8          -2.75           -2.7
          -2.65           -2.6          -2.55
           -2.5          -2.45           -2.4
          -2.35           -2.3          -2.25
           -2.2          -2.15           -2.1
          -2.05             -2          -1.95
           -1.9          -1.85           -1.8
          -1.75           -1.7          -1.65
           -1.6          -1.55           -1.5
          -1.45           -1.4          -1.35
           -1.3          -1.25           -1.2
          -1.15           -1.1          -1.05
             -1          -0.95           -0.9
          -0.85           -0.8          -0.75
           -0.7          -0.65           -0.6
          -0.55           -0.5          -0.45
           -0.4          -0.35           -0.3
          -0.25           -0.2          -0.15
           -0.1          -0.05              0
           0.05            0.1           0.15
            0.2           0.25            0.3
           0.35            0.4           0.45
            0.5           0.55            0.6
           0.65            0.7           0.75
            0.8           0.85            0.9
           0.95              1           1.05
            1.1           1.15            1.2
           1.25            1.3           1.35
            1.4           1.45            1.5
           1.55            1.6           1.65
            1.7           1.75            1.8
           1.85            1.9           1.95
              2           2.05            2.1
           2.15            2.2           2.25
            2.3           2.35            2.4
           2.45            2.5           2.55
            2.6           2.65            2.7
           2.75            2.8           2.85
            2.9           2.95              3
           3.05            3.1           3.15
            3.2           3.25            3.3
           3.35            3.4           3.45
            3.5           3.55            3.6
           3.65            3.7           3.75
            3.8           3.85            3.9
           3.95              4           4.05
            4.1           4.15            4.2
           4.25            4.3           4.35
            4.4           4.45            4.5
           4.55            4.6           4.65
            4.7           4.75            4.8
           4.85            4.9           4.95
              5           5.05            5.1
           5.15            5.2           5.25
            5.3           5.35            5.4
           5.45            5.5           5.55
            5.6           5.65            5.7
           5.75            5.8           5.85
            5.9           5.95              6
           6.05            6.1           6.15
            6.2           6.25            6.3
           6.35            6.4           6.45
            6.5           6.55            6.6
           6.65            6.7           6.75
            6.8           6.85            6.9
           6.95              7           7.05
            7.1           7.15            7.2