Title = f_reconstructed_dmd_real
VARIABLES= "x", "f_DMD(x,t)"
ZONE F=BLOCK, T="0", I=400
            -10          -9.95           -9.9
          -9.85           -9.8          -9.75
           -9.7          -9.65           -9.6
          -9.55           -9.5          -9.45
           -9.4          -9.35           -9.3
          -9.25           -9.2          -9.15
           -9.1          -9.05             -9
          -8.95           -8.9          -8.85
           -8.8          -8.75           -8.7
          -8.65           -8.6          -8.55
           -8.5          -8.45           -8.4
          -8.35           -8.3          -8.25
           -8.2          -8.15           -8.1
          -8.05             -8          -7.95
           -7.9          -7.85           -7.8
          -7.75           -7.7          -7.65
           -7.6          -7.55           -7.5
          -7.45           -7.4          -7.35
           -7.3          -7.25           -7.2
          -7.15           -7.1          -7.05
             -7          -6.95           -6.9
          -6.85           -6.8          -6.75
           -6.7          -6.65           -6.6
          -6.55           -6.5          -6.45
           -6.4          -6.35           -6.3
          -6.25           -6.2          -6.15
           -6.1          -6.05             -6
          -5.95           -5.9          -5.85
           -5.8          -5.75           -5.7
          -5.65           -5.6          -5.55
           -5.5          -5.45           -5.4
          -5.35           -5.3          -5.25
           -5.2          -5.15           -5.1
          -5.05             -5          -4.95
           -4.9          -4.85           -4.8
          -4.75           -4.7          -4.65
           -4.6          -4.55           -4.5
          -4.45           -4.4          -4.35
           -4.3          -4.25           -4.2
          -4.15           -4.1          -4.05
             -4          -3.95           -3.9
          -3.85           -3.8          -3.75
           -3.7          -3.65           -3.6
          -3.55           -3.5          -3.45
           -3.4          -3.35           -3.3
          -3.25           -3.2          -3.15
           -3.1          -3.05             -3
          -2.95           -2.9          -2.85
           -2.8          -2.75           -2.7
          -2.65           -2.6          -2.55
           -2.5          -2.45           -2.4
          -2.35           -2.3          -2.25
           -2.2          -2.15           -2.1
          -2.05             -2          -1.95
           -1.9          -1.85           -1.8
          -1.75           -1.7          -1.65
           -1.6          -1.55           -1.5
          -1.45           -1.4          -1.35
           -1.3          -1.25           -1.2
          -1.15           -1.1          -1.05
             -1          -0.95           -0.9
          -0.85           -0.8          -0.75
           -0.7          -0.65           -0.6
          -0.55           -0.5          -0.45
           -0.4          -0.35           -0.3
          -0.25           -0.2          -0.15
           -0.1          -0.05              0
           0.05            0.1           0.15
            0.2           0.25            0.3
           0.35            0.4           0.45
            0.5           0.55            0.6
           0.65            0.7           0.75
            0.8           0.85            0.9
           0.95              1           1.05
            1.1           1.15            1.2
           1.25            1.3           1.35
            1.4           1.45            1.5
           1.55            1.6           1.65
            1.7           1.75            1.8
           1.85            1.9           1.95
              2           2.05            2.1
           2.15            2.2           2.25
            2.3           2.35            2.4
           2.45            2.5           2.55
            2.6           2.65            2.7
           2.75            2.8           2.85
            2.9           2.95              3
           3.05            3.1           3.15
            3.2           3.25            3.3
           3.35            3.4           3.45
            3.5           3.55            3.6
           3.65            3.7           3.75
            3.8           3.85            3.9
           3.95              4           4.05
            4.1           4.15            4.2
           4.25            4.3           4.35
            4.4           4.45            4.5
           4.55            4.6           4.65
            4.7           4.75            4.8
           4.85            4.9           4.95
              5           5.05            5.1
           5.15            5.2           5.25
            5.3           5.35            5.4
           5.45            5.5           5.55
            5.6           5.65            5.7
           5.75            5.8           5.85
            5.9           5.95              6
           6.05            6.1           6.15
            6.2           6.25            6.3
           6.35            6.4           6.45
            6.5           6.55            6.6
           6.65            6.7           6.75
            6.8           6.85            6.9
           6.95              7           7.05
            7.1           7.15            7.2
           7.25            7.3           7.35
            7.4           7.45            7.5
           7.55            7.6           7.65
            7.7           7.75            7.8
           7.85            7.9           7.95
              8           8.05            8.1
           8.15            8.2           8.25
            8.3           8.35            8.4
           8.45            8.5           8.55
            8.6           8.65            8.7
           8.75            8.8           8.85
            8.9           8.95              9
           9.05            9.1           9.15
            9.2           9.25            9.3
           9.35            9.4           9.45
            9.5           9.55            9.6
           9.65            9.7           9.75
            9.8           9.85            9.9
           9.95
     0.00163406     0.00171784
     0.00180591     0.00189851     0.00199584
     0.00209817     0.00220575     0.00231884
     0.00243773     0.00256271      0.0026941
     0.00283223     0.00297744      0.0031301
     0.00329058     0.00345929     0.00363665
      0.0038231     0.00401912     0.00422518
     0.00444181     0.00466954     0.00490895
     0.00516063     0.00542522     0.00570337
     0.00599578     0.00630318     0.00662634
     0.00696607     0.00732321     0.00769867
     0.00809337     0.00850831     0.00894451
     0.00940308     0.00988516      0.0103919
      0.0109247      0.0114848      0.0120736
      0.0126925      0.0133432      0.0140272
      0.0147463      0.0155023      0.0162969
      0.0171323      0.0180105      0.0189337
      0.0199042      0.0209244      0.0219969
      0.0231243      0.0243094      0.0255552
      0.0268648      0.0282415      0.0296886
      0.0312098      0.0328088      0.0344895
      0.0362563      0.0381134      0.0400654
      0.0421171      0.0442737      0.0465403
      0.0489226      0.0514265      0.0540579
      0.0568235      0.0597299      0.0627842
      0.0659937      0.0693663        0.07291
      0.0766333      0.0805452      0.0846548
      0.0889719      0.0935066      0.0982695
       0.103271       0.108524       0.114039
       0.119829       0.125907       0.132286
       0.138979       0.146001       0.153367
       0.161091       0.169189       0.177677
       0.186569       0.195884       0.205635
       0.215841       0.226516       0.237677
       0.249338       0.261515       0.274221
       0.287469        0.30127       0.315633
       0.330565       0.346071       0.362151
       0.378804       0.396021        0.41379
       0.432095       0.450909         0.4702
       0.489928       0.510044       0.530485
       0.551183       0.572053       0.592999
       0.613914       0.634674       0.655144
       0.675174       0.694602       0.713254
       0.730945       0.747483       0.762667
       0.776295       0.788165       0.798079
       0.805844       0.811283       0.814232
       0.814549       0.812114       0.806832
        0.79864       0.787502       0.773414
       0.756401       0.736517       0.713842
       0.688482       0.660561       0.630219
       0.597613       0.562903        0.52626
       0.487852       0.447849       0.406415
       0.363709       0.319884       0.275083
       0.229443       0.183092       0.136151
      0.0887346      0.0409548     -0.0070805
     -0.0552628      -0.103481      -0.151621
      -0.199557      -0.247156      -0.294269
       -0.34073      -0.386353      -0.430929
      -0.474222      -0.515967      -0.555868
      -0.593597      -0.628793       -0.66106
      -0.689972      -0.715073      -0.735884
      -0.751905      -0.762632      -0.767559
      -0.766196      -0.758086      -0.742818
      -0.720047      -0.689518      -0.651081
      -0.604711      -0.550524      -0.488791
      -0.419945      -0.344582      -0.263458
      -0.177477     -0.0876702     0.00482754
      0.0988102       0.193035        0.28626
        0.37728       0.464963       0.548282
       0.626336       0.698376       0.763811
       0.822216       0.873328        0.91704
       0.953386       0.982528        1.00473
        1.02036        1.02982         1.0336
         1.0322        1.02613        1.01592
        1.00207       0.985091       0.965437
       0.943553       0.919844       0.894682
       0.868403       0.841308       0.813666
        0.78571       0.757646       0.729652
       0.701877       0.674449       0.647476
       0.621043       0.595223        0.57007
       0.545629       0.521931       0.498998
       0.476844       0.455476       0.434895
       0.415095       0.396069       0.377805
       0.360288         0.3435       0.327424
       0.312039       0.297324       0.283257
       0.269817        0.25698       0.244725
       0.233029       0.221871       0.211228
       0.201079       0.191405       0.182183
       0.173396       0.165024       0.157048
       0.149451       0.142216       0.135327
       0.128767       0.122521       0.116575
       0.110915       0.105528         0.1004
      0.0955198      0.0908752      0.0864552
      0.0822491      0.0782467      0.0744383
      0.0708145      0.0673665      0.0640859
      0.0609646       0.057995      0.0551697
      0.0524817      0.0499244      0.0474916
      0.0451771      0.0429753      0.0408806
      0.0388879      0.0369923       0.035189
      0.0334735      0.0318416      0.0302891
      0.0288124      0.0274076      0.0260712
         0.0248      0.0235907      0.0224404
      0.0213461      0.0203052      0.0193151
      0.0183732      0.0174772      0.0166249
      0.0158142       0.015043      0.0143094
      0.0136115      0.0129478      0.0123163
      0.0117157      0.0111443      0.0106008
      0.0100838     0.00959206     0.00912426
     0.00867928       0.008256     0.00785336
     0.00747035     0.00710602     0.00675946
     0.00642981     0.00611623     0.00581794
      0.0055342     0.00526429     0.00500755
     0.00476333     0.00453102     0.00431005
     0.00409984     0.00389989     0.00370969
     0.00352877     0.00335667     0.00319297
     0.00303724     0.00288912     0.00274821
     0.00261418     0.00248669     0.00236541
     0.00225005     0.00214031     0.00203593
     0.00193663     0.00184218     0.00175234
     0.00166688     0.00158558     0.00150825
     0.00143469     0.00136472     0.00129816
     0.00123485     0.00117463     0.00111734
     0.00106285     0.00101101    0.000961704
    0.000914801    0.000870186    0.000827747
    0.000787377    0.000748976    0.000712448
    0.000677702     0.00064465     0.00061321
    0.000583303    0.000554855    0.000527794
    0.000502054    0.000477568    0.000454277
    0.000432122    0.000411047       0.000391
    0.000371931    0.000353791    0.000336537
    0.000320124    0.000304511     0.00028966
    0.000275533    0.000262095    0.000249312
    0.000237153    0.000225587    0.000214585
     0.00020412    0.000194165
ZONE F=BLOCK, T="0.0628319", I=400
            -10          -9.95           -9.9
          -9.85           -9.8          -9.75
           -9.7          -9.65           -9.6
          -9.55           -9.5          -9.45
           -9.4          -9.35           -9.3
          -9.25           -9.2          -9.15
           -9.1          -9.05             -9
          -8.95           -8.9          -8.85
           -8.8          -8.75           -8.7
          -8.65           -8.6          -8.55
           -8.5          -8.45           -8.4
          -8.35           -8.3          -8.25
           -8.2          -8.15           -8.1
          -8.05             -8          -7.95
           -7.9          -7.85           -7.8
          -7.75           -7.7          -7.65
           -7.6          -7.55           -7.5
          -7.45           -7.4          -7.35
           -7.3          -7.25           -7.2
          -7.15           -7.1          -7.05
             -7          -6.95           -6.9
          -6.85           -6.8          -6.75
           -6.7          -6.65           -6.6
          -6.55           -6.5          -6.45
           -6.4          -6.35           -6.3
          -6.25           -6.2          -6.15
           -6.1          -6.05             -6
          -5.95           -5.9          -5.85
           -5.8          -5.75           -5.7
          -5.65           -5.6          -5.55
           -5.5          -5.45           -5.4
          -5.35           -5.3          -5.25
           -5.2          -5.15           -5.1
          -5.05             -5          -4.95
           -4.9          -4.85           -4.8
          -4.75           -4.7          -4.65
           -4.6          -4.55           -4.5
          -4.45           -4.4          -4.35
           -4.3          -4.25           -4.2
          -4.15           -4.1          -4.05
             -4          -3.95           -3.9
          -3.85           -3.8          -3.75
           -3.7          -3.65           -3.6
          -3.55           -3.5          -3.45
           -3.4          -3.35           -3.3
          -3.25           -3.2          -3.15
           -3.1          -3.05             -3
          -2.95           -2.9          -2.85
           -2.8          -2.75           -2.7
          -2.65           -2.6          -2.55
           -2.5          -2.45           -2.4
          -2.35           -2.3          -2.25
           -2.2          -2.15           -2.1
          -2.05             -2          -1.95
           -1.9          -1.85           -1.8
          -1.75           -1.7          -1.65
           -1.6          -1.55           -1.5
          -1.45           -1.4          -1.35
           -1.3          -1.25           -1.2
          -1.15           -1.1          -1.05
             -1          -0.95           -0.9
          -0.85           -0.8          -0.75
           -0.7          -0.65           -0.6
          -0.55           -0.5          -0.45
           -0.4          -0.35           -0.3
          -0.25           -0.2          -0.15
           -0.1          -0.05              0
           0.05            0.1           0.15
            0.2           0.25            0.3
           0.35            0.4           0.45
            0.5           0.55            0.6
           0.65            0.7           0.75
            0.8           0.85            0.9
           0.95              1           1.05
            1.1           1.15            1.2
           1.25            1.3           1.35
            1.4           1.45            1.5
           1.55            1.6           1.65
            1.7           1.75            1.8
           1.85            1.9           1.95
              2           2.05            2.1
           2.15            2.2           2.25
            2.3           2.35            2.4
           2.45            2.5           2.55
            2.6           2.65            2.7
           2.75            2.8           2.85
            2.9           2.95              3
           3.05            3.1           3.15
            3.2           3.25            3.3
           3.35            3.4           3.45
            3.5           3.55            3.6
           3.65            3.7           3.75
            3.8           3.85            3.9
           3.95              4           4.05
            4.1           4.15            4.2
           4.25            4.3           4.35
            4.4           4.45            4.5
           4.55            4.6           4.65
            4.7           4.75            4.8
           4.85            4.9           4.95
              5           5.05            5.1
           5.15            5.2           5.25
            5.3           5.35            5.4
           5.45            5.5           5.55
            5.6           5.65            5.7
           5.75            5.8           5.85
            5.9           5.95              6
           6.05            6.1           6.15
            6.2           6.25            6.3
           6.35            6.4           6.45
            6.5           6.55            6.6
           6.65            6.7           6.75
            6.8           6.85            6.9
           6.95              7           7.05
            7.1           7.15            7.2
           7.25            7.3           7.35
            7.4           7.45            7.5
           7.55            7.6           7.65
            7.7           7.75            7.8
           7.85            7.9           7.95
              8           8.05            8.1
           8.15            8.2           8.25
            8.3           8.35            8.4
           8.45            8.5           8.55
            8.6           8.65            8.7
           8.75            8.8           8.85
            8.9           8.95              9
           9.05            9.1           9.15
            9.2           9.25            9.3
           9.35            9.4           9.45
            9.5           9.55            9.6
           9.65            9.7           9.75
            9.8           9.85            9.9
           9.95
     0.00163406     0.00171784
     0.00180591     0.00189851     0.00199584
     0.00209817     0.00220575     0.00231884
     0.00243773     0.00256271      0.0026941
     0.00283223     0.00297744      0.0031301
     0.00329058     0.00345929     0.00363665
      0.0038231     0.00401912     0.00422518
     0.00444181     0.00466954     0.00490895
     0.00516063     0.00542522     0.00570337
     0.00599578     0.00630318     0.00662634
     0.00696607     0.00732321     0.00769867
     0.00809337     0.00850831     0.00894451
     0.00940308     0.00988516      0.0103919
      0.0109247      0.0114848      0.0120736
      0.0126925      0.0133432      0.0140272
      0.0147463      0.0155023      0.0162969
      0.0171323      0.0180105      0.0189337
      0.0199042      0.0209244      0.0219969
      0.0231243      0.0243094      0.0255552
      0.0268648      0.0282415      0.0296886
      0.0312098      0.0328088      0.0344895
      0.0362563      0.0381134      0.0400654
      0.0421171      0.0442737      0.0465403
      0.0489226      0.0514265      0.0540579
      0.0568235      0.0597299      0.0627842
      0.0659937      0.0693663        0.07291
      0.0766333      0.0805452      0.0846548
      0.0889719      0.0935066      0.0982695
       0.103271       0.108524       0.114039
       0.119829       0.125907       0.132286
       0.138979       0.146001       0.153367
       0.161091       0.169189       0.177677
       0.186569       0.195884       0.205635
       0.215841       0.226516       0.237677
       0.249338       0.261515       0.274221
       0.287469        0.30127       0.315633
       0.330565       0.346071       0.362151
       0.378804       0.396021        0.41379
       0.432095       0.450909         0.4702
       0.489928       0.510044       0.530485
       0.551183       0.572053       0.592999
       0.613914       0.634674       0.655144
       0.675174       0.694602       0.713254
       0.730945       0.747483       0.762667
       0.776295       0.788165       0.798079
       0.805844       0.811283       0.814232
       0.814549       0.812114       0.806832
        0.79864       0.787502       0.773414
       0.756401       0.736517       0.713842
       0.688482       0.660561       0.630219
       0.597613       0.562903        0.52626
       0.487852       0.447849       0.406415
       0.363709       0.319884       0.275083
       0.229443       0.183092       0.136151
      0.0887346      0.0409548    -0.00708049
     -0.0552628      -0.103481      -0.151621
      -0.199557      -0.247156      -0.294269
       -0.34073      -0.386353      -0.430929
      -0.474222      -0.515967      -0.555868
      -0.593597      -0.628793       -0.66106
      -0.689972      -0.715073      -0.735884
      -0.751905      -0.762632      -0.767559
      -0.766196      -0.758086      -0.742818
      -0.720047      -0.689518      -0.651081
      -0.604711      -0.550524      -0.488791
      -0.419945      -0.344582      -0.263458
      -0.177477     -0.0876702     0.00482754
      0.0988102       0.193035        0.28626
        0.37728       0.464963       0.548282
       0.626336       0.698376       0.763811
       0.822216       0.873328        0.91704
       0.953386       0.982528        1.00473
        1.02036        1.02982         1.0336
         1.0322        1.02613        1.01592
        1.00207       0.985091       0.965437
       0.943553       0.919844       0.894682
       0.868403       0.841308       0.813666
        0.78571       0.757646       0.729652
       0.701877       0.674449       0.647475
       0.621043       0.595223        0.57007
       0.545629       0.521931       0.498998
       0.476844       0.455476       0.434895
       0.415095       0.396069       0.377805
       0.360288         0.3435       0.327424
       0.312039       0.297324       0.283257
       0.269817        0.25698       0.244725
       0.233029       0.221871       0.211228
       0.201079       0.191405       0.182183
       0.173396       0.165024       0.157048
       0.149451       0.142216       0.135327
       0.128767       0.122521       0.116575
       0.110915       0.105528         0.1004
      0.0955198      0.0908752      0.0864552
      0.0822491      0.0782467      0.0744383
      0.0708145      0.0673665      0.0640859
      0.0609646       0.057995      0.0551697
      0.0524817      0.0499244      0.0474916
      0.0451771      0.0429753      0.0408806
      0.0388879      0.0369923       0.035189
      0.0334735      0.0318416      0.0302891
      0.0288124      0.0274076      0.0260712
         0.0248      0.0235907      0.0224404
      0.0213461      0.0203052      0.0193151
      0.0183732      0.0174772      0.0166249
      0.0158142       0.015043      0.0143094
      0.0136115      0.0129478      0.0123163
      0.0117157      0.0111443      0.0106008
      0.0100838     0.00959206     0.00912426
     0.00867928       0.008256     0.00785336
     0.00747035     0.00710602     0.00675947
     0.00642981     0.00611623     0.00581794
      0.0055342     0.00526429     0.00500755
     0.00476333     0.00453102     0.00431005
     0.00409984     0.00389989     0.00370969
     0.00352877     0.00335667     0.00319297
     0.00303724     0.00288912     0.00274821
     0.00261418     0.00248669     0.00236541
     0.00225005     0.00214031     0.00203593
     0.00193663     0.00184218     0.00175234
     0.00166688     0.00158558     0.00150825
     0.00143469     0.00136472     0.00129816
     0.00123485     0.00117463     0.00111734
     0.00106285     0.00101101    0.000961704
    0.000914801    0.000870186    0.000827747
    0.000787377    0.000748976    0.000712448
    0.000677702     0.00064465     0.00061321
    0.000583303    0.000554855    0.000527794
    0.000502054    0.000477568    0.000454277
    0.000432122    0.000411047       0.000391
    0.000371931    0.000353791    0.000336537
    0.000320124    0.000304511     0.00028966
    0.000275533    0.000262095    0.000249312
    0.000237153    0.000225587    0.000214585
     0.00020412    0.000194165
ZONE F=BLOCK, T="0.125664", I=400
            -10          -9.95           -9.9
          -9.85           -9.8          -9.75
           -9.7          -9.65           -9.6
          -9.55           -9.5          -9.45
           -9.4          -9.35           -9.3
          -9.25           -9.2          -9.15
           -9.1          -9.05             -9
          -8.95           -8.9          -8.85
           -8.8          -8.75           -8.7
          -8.65           -8.6          -8.55
           -8.5          -8.45           -8.4
          -8.35           -8.3          -8.25
           -8.2          -8.15           -8.1
          -8.05             -8          -7.95
           -7.9          -7.85           -7.8
          -7.75           -7.7          -7.65
           -7.6          -7.55           -7.5
          -7.45           -7.4          -7.35
           -7.3          -7.25           -7.2
          -7.15           -7.1          -7.05
             -7          -6.95           -6.9
          -6.85           -6.8          -6.75
           -6.7          -6.65           -6.6
          -6.55           -6.5          -6.45
           -6.4          -6.35           -6.3
          -6.25           -6.2          -6.15
           -6.1          -6.05             -6
          -5.95           -5.9          -5.85
           -5.8          -5.75           -5.7
          -5.65           -5.6          -5.55
           -5.5          -5.45           -5.4
          -5.35           -5.3          -5.25
           -5.2          -5.15           -5.1
          -5.05             -5          -4.95
           -4.9          -4.85           -4.8
          -4.75           -4.7          -4.65
           -4.6          -4.55           -4.5
          -4.45           -4.4          -4.35
           -4.3          -4.25           -4.2
          -4.15           -4.1          -4.05
             -4          -3.95           -3.9
          -3.85           -3.8          -3.75
           -3.7          -3.65           -3.6
          -3.55           -3.5          -3.45
           -3.4          -3.35           -3.3
          -3.25           -3.2          -3.15
           -3.1          -3.05             -3
          -2.95           -2.9          -2.85
           -2.8          -2.75           -2.7
          -2.65           -2.6          -2.55
           -2.5          -2.45           -2.4
          -2.35           -2.3          -2.25
           -2.2          -2.15           -2.1
          -2.05             -2          -1.95
           -1.9          -1.85           -1.8
          -1.75           -1.7          -1.65
           -1.6          -1.55           -1.5
          -1.45           -1.4          -1.35
           -1.3          -1.25           -1.2
          -1.15           -1.1          -1.05
             -1          -0.95           -0.9
          -0.85           -0.8          -0.75
           -0.7          -0.65           -0.6
          -0.55           -0.5          -0.45
           -0.4          -0.35           -0.3
          -0.25           -0.2          -0.15
           -0.1          -0.05              0
           0.05            0.1           0.15
            0.2           0.25            0.3
           0.35            0.4           0.45
            0.5           0.55            0.6
           0.65            0.7           0.75
            0.8           0.85            0.9
           0.95              1           1.05
            1.1           1.15            1.2
           1.25            1.3           1.35
            1.4           1.45            1.5
           1.55            1.6           1.65
            1.7           1.75            1.8
           1.85            1.9           1.95
              2           2.05            2.1
           2.15            2.2           2.25
            2.3           2.35            2.4
           2.45            2.5           2.55
            2.6           2.65            2.7
           2.75            2.8           2.85
            2.9           2.95              3
           3.05            3.1           3.15
            3.2           3.25            3.3
           3.35            3.4           3.45
            3.5           3.55            3.6
           3.65            3.7           3.75
            3.8           3.85            3.9
           3.95              4           4.05
            4.1           4.15            4.2
           4.25            4.3           4.35
            4.4           4.45            4.5
           4.55            4.6           4.65
            4.7           4.75            4.8
           4.85            4.9           4.95
              5           5.05            5.1
           5.15            5.2           5.25
            5.3           5.35            5.4
           5.45            5.5           5.55
            5.6           5.65            5.7
           5.75            5.8           5.85
            5.9           5.95              6
           6.05            6.1           6.15
            6.2           6.25            6.3
           6.35            6.4           6.45
            6.5           6.55            6.6
           6.65            6.7           6.75
            6.8           6.85            6.9
           6.95              7           7.05
            7.1           7.15            7.2