Title=Realfreq_1
VARIABLES= "x", "fr_1(x,t)"
ZONE F=BLOCK, T="0", I=400
            -10          -9.95           -9.9
          -9.85           -9.8          -9.75
           -9.7          -9.65           -9.6
          -9.55           -9.5          -9.45
           -9.4          -9.35           -9.3
          -9.25           -9.2          -9.15
           -9.1          -9.05             -9
          -8.95           -8.9          -8.85
           -8.8          -8.75           -8.7
          -8.65           -8.6          -8.55
           -8.5          -8.45           -8.4
          -8.35           -8.3          -8.25
           -8.2          -8.15           -8.1
          -8.05             -8          -7.95
           -7.9          -7.85           -7.8
          -7.75           -7.7          -7.65
           -7.6          -7.55           -7.5
          -7.45           -7.4          -7.35
           -7.3          -7.25           -7.2
          -7.15           -7.1          -7.05
             -7          -6.95           -6.9
          -6.85           -6.8          -6.75
           -6.7          -6.65           -6.6
          -6.55           -6.5          -6.45
           -6.4          -6.35           -6.3
          -6.25           -6.2          -6.15
           -6.1          -6.05             -6
          -5.95           -5.9          -5.85
           -5.8          -5.75           -5.7
          -5.65           -5.6          -5.55
           -5.5          -5.45           -5.4
          -5.35           -5.3          -5.25
           -5.2          -5.15           -5.1
          -5.05             -5          -4.95
           -4.9          -4.85           -4.8
          -4.75           -4.7          -4.65
           -4.6          -4.55           -4.5
          -4.45           -4.4          -4.35
           -4.3          -4.25           -4.2
          -4.15           -4.1          -4.05
             -4          -3.95           -3.9
          -3.85           -3.8          -3.75
           -3.7          -3.65           -3.6
          -3.55           -3.5          -3.45
           -3.4          -3.35           -3.3
          -3.25           -3.2          -3.15
           -3.1          -3.05             -3
          -2.95           -2.9          -2.85
           -2.8          -2.75           -2.7
          -2.65           -2.6          -2.55
           -2.5          -2.45           -2.4
          -2.35           -2.3          -2.25
           -2.2          -2.15           -2.1
          -2.05             -2          -1.95
           -1.9          -1.85           -1.8
          -1.75           -1.7          -1.65
           -1.6          -1.55           -1.5
          -1.45           -1.4          -1.35
           -1.3          -1.25           -1.2
          -1.15           -1.1          -1.05
             -1          -0.95           -0.9
          -0.85           -0.8          -0.75
           -0.7          -0.65           -0.6
          -0.55           -0.5          -0.45
           -0.4          -0.35           -0.3
          -0.25           -0.2          -0.15
           -0.1          -0.05              0
           0.05            0.1           0.15
            0.2           0.25            0.3
           0.35            0.4           0.45
            0.5           0.55            0.6
           0.65            0.7           0.75
            0.8           0.85            0.9
           0.95              1           1.05
            1.1           1.15            1.2
           1.25            1.3           1.35
            1.4           1.45            1.5
           1.55            1.6           1.65
            1.7           1.75            1.8
           1.85            1.9           1.95
              2           2.05            2.1
           2.15            2.2           2.25
            2.3           2.35            2.4
           2.45            2.5           2.55
            2.6           2.65            2.7
           2.75            2.8           2.85
            2.9           2.95              3
           3.05            3.1           3.15
            3.2           3.25            3.3
           3.35            3.4           3.45
            3.5           3.55            3.6
           3.65            3.7           3.75
            3.8           3.85            3.9
           3.95              4           4.05
            4.1           4.15            4.2
           4.25            4.3           4.35
            4.4           4.45            4.5
           4.55            4.6           4.65
            4.7           4.75            4.8
           4.85            4.9           4.95
              5           5.05            5.1
           5.15            5.2           5.25
            5.3           5.35            5.4
           5.45            5.5           5.55
            5.6           5.65            5.7
           5.75            5.8           5.85
            5.9           5.95              6
           6.05            6.1           6.15
            6.2           6.25            6.3
           6.35            6.4           6.45
            6.5           6.55            6.6
           6.65            6.7           6.75
            6.8           6.85            6.9
           6.95              7           7.05
            7.1           7.15            7.2
           7.25            7.3           7.35
            7.4           7.45            7.5
           7.55            7.6           7.65
            7.7           7.75            7.8
           7.85            7.9           7.95
              8           8.05            8.1
           8.15            8.2           8.25
            8.3           8.35            8.4
           8.45            8.5           8.55
            8.6           8.65            8.7
           8.75            8.8           8.85
            8.9           8.95              9
           9.05            9.1           9.15
            9.2           9.25            9.3
           9.35            9.4           9.45
            9.5           9.55            9.6
           9.65            9.7           9.75
            9.8           9.85            9.9
           9.95
     -0.0001816   -0.000190911
   -0.000200699   -0.000210989   -0.000221806
   -0.000233179   -0.000245134   -0.000257702
   -0.000270915   -0.000284805   -0.000299407
   -0.000314758   -0.000330896   -0.000347862
   -0.000365697   -0.000384447   -0.000404158
   -0.000424879   -0.000446663   -0.000469564
   -0.000493639   -0.000518949   -0.000545556
   -0.000573527   -0.000602932   -0.000633845
   -0.000666343   -0.000700507   -0.000736423
    -0.00077418   -0.000813873   -0.000855602
   -0.000899469   -0.000945586   -0.000994067
    -0.00104503    -0.00109861    -0.00115494
    -0.00121416    -0.00127641    -0.00134185
    -0.00141065    -0.00148297    -0.00155901
    -0.00163894    -0.00172297    -0.00181131
    -0.00190418     -0.0020018    -0.00210444
    -0.00221234    -0.00232576    -0.00244501
    -0.00257037    -0.00270215    -0.00284069
    -0.00298634    -0.00313945    -0.00330041
    -0.00346963    -0.00364752    -0.00383453
    -0.00403113    -0.00423781    -0.00445508
     -0.0046835    -0.00492363    -0.00517606
    -0.00544144    -0.00572043    -0.00601372
    -0.00632204    -0.00664617    -0.00698692
    -0.00734514    -0.00772173    -0.00811762
    -0.00853381    -0.00897134    -0.00943129
    -0.00991483     -0.0104231     -0.0109575
     -0.0115193     -0.0121099     -0.0127307
     -0.0133834     -0.0140695     -0.0147908
     -0.0155491     -0.0163463     -0.0171843
     -0.0180652     -0.0189913     -0.0199649
     -0.0209883     -0.0220642     -0.0231953
     -0.0243843     -0.0256342     -0.0269481
     -0.0283294     -0.0297814     -0.0313078
     -0.0329123      -0.034599     -0.0363721
     -0.0382359     -0.0401952     -0.0422547
     -0.0444195     -0.0466952     -0.0490872
     -0.0516015     -0.0542443     -0.0570221
     -0.0599419     -0.0630107     -0.0662361
     -0.0696261     -0.0731889     -0.0769332
     -0.0808682     -0.0850034     -0.0893489
      -0.093915     -0.0987129      -0.103754
       -0.10905      -0.114615       -0.12046
      -0.126599      -0.133048       -0.13982
      -0.146932      -0.154399      -0.162238
      -0.170467      -0.179103      -0.188166
      -0.197673      -0.207646      -0.218104
      -0.229068      -0.240558      -0.252598
      -0.265207      -0.278408      -0.292222
      -0.306672      -0.321777      -0.337558
      -0.354034      -0.371224      -0.389142
      -0.407802      -0.427217      -0.447391
      -0.468329      -0.490029      -0.512481
      -0.535671      -0.559574      -0.584157
      -0.609374      -0.635166       -0.66146
      -0.688166      -0.715175      -0.742354
       -0.76955      -0.796581      -0.823239
      -0.849283       -0.87444      -0.898404
      -0.920832      -0.941346      -0.959533
      -0.974946      -0.987109      -0.995519
      -0.999658      -0.998994         -0.993
      -0.981165      -0.963006      -0.938092
      -0.906057      -0.866626      -0.819628
      -0.765023      -0.702911      -0.633548
      -0.557356      -0.474919      -0.386985
      -0.294451      -0.198343      -0.099792
              0       0.099792       0.198343
       0.294451       0.386985       0.474919
       0.557356       0.633548       0.702911
       0.765023       0.819628       0.866626
       0.906057       0.938092       0.963006
       0.981165          0.993       0.998994
       0.999658       0.995519       0.987109
       0.974946       0.959533       0.941346
       0.920832       0.898404        0.87444
       0.849283       0.823239       0.796581
        0.76955       0.742354       0.715175
       0.688166        0.66146       0.635166
       0.609374       0.584157       0.559574
       0.535671       0.512481       0.490029
       0.468329       0.447391       0.427217
       0.407802       0.389142       0.371224
       0.354034       0.337558       0.321777
       0.306672       0.292222       0.278408
       0.265207       0.252598       0.240558
       0.229068       0.218104       0.207646
       0.197673       0.188166       0.179103
       0.170467       0.162238       0.154399
       0.146932        0.13982       0.133048
       0.126599        0.12046       0.114615
        0.10905       0.103754      0.0987129
       0.093915      0.0893489      0.0850034
      0.0808682      0.0769332      0.0731889
      0.0696261      0.0662361      0.0630107
      0.0599419      0.0570221      0.0542443
      0.0516015      0.0490872      0.0466952
      0.0444195      0.0422547      0.0401952
      0.0382359      0.0363721       0.034599
      0.0329123      0.0313078      0.0297814
      0.0283294      0.0269481      0.0256342
      0.0243843      0.0231953      0.0220642
      0.0209883      0.0199649      0.0189913
      0.0180652      0.0171843      0.0163463
      0.0155491      0.0147908      0.0140695
      0.0133834      0.0127307      0.0121099
      0.0115193      0.0109575      0.0104231
     0.00991483     0.00943129     0.00897134
     0.00853381     0.00811762     0.00772173
     0.00734514     0.00698692     0.00664617
     0.00632204     0.00601372     0.00572043
     0.00544144     0.00517606     0.00492363
      0.0046835     0.00445508     0.00423781
     0.00403113     0.00383453     0.00364752
     0.00346963     0.00330041     0.00313945
     0.00298634     0.00284069     0.00270215
     0.00257037     0.00244501     0.00232576
     0.00221234     0.00210444      0.0020018
     0.00190418     0.00181131     0.00172297
     0.00163894     0.00155901     0.00148297
     0.00141065     0.00134185     0.00127641
     0.00121416     0.00115494     0.00109861
     0.00104503    0.000994067    0.000945586
    0.000899469    0.000855602    0.000813873
     0.00077418    0.000736423    0.000700507
    0.000666343    0.000633845    0.000602932
    0.000573527    0.000545556    0.000518949
    0.000493639    0.000469564    0.000446663
    0.000424879    0.000404158    0.000384447
    0.000365697    0.000347862    0.000330896
    0.000314758    0.000299407    0.000284805
    0.000270915    0.000257702    0.000245134
    0.000233179    0.000221806    0.000210989
    0.000200699    0.000190911
ZONE F=BLOCK, T="0.0628319", I=400
            -10          -9.95           -9.9
          -9.85           -9.8          -9.75
           -9.7          -9.65           -9.6
          -9.55           -9.5          -9.45
           -9.4          -9.35           -9.3
          -9.25           -9.2          -9.15
           -9.1          -9.05             -9
          -8.95           -8.9          -8.85
           -8.8          -8.75           -8.7
          -8.65           -8.6          -8.55
           -8.5          -8.45           -8.4
          -8.35           -8.3          -8.25
           -8.2          -8.15           -8.1
          -8.05             -8          -7.95
           -7.9          -7.85           -7.8
          -7.75           -7.7          -7.65
           -7.6          -7.55           -7.5
          -7.45           -7.4          -7.35
           -7.3          -7.25           -7.2
          -7.15           -7.1          -7.05
             -7          -6.95           -6.9
          -6.85           -6.8          -6.75
           -6.7          -6.65           -6.6
          -6.55           -6.5          -6.45
           -6.4          -6.35           -6.3
          -6.25           -6.2          -6.15
           -6.1          -6.05             -6
          -5.95           -5.9          -5.85
           -5.8          -5.75           -5.7
          -5.65           -5.6          -5.55
           -5.5          -5.45           -5.4
          -5.35           -5.3          -5.25
           -5.2          -5.15           -5.1
          -5.05             -5          -4.95
           -4.9          -4.85           -4.8
          -4.75           -4.7          -4.65
           -4.6          -4.55           -4.5
          -4.45           -4.4          -4.35
           -4.3          -4.25           -4.2
          -4.15           -4.1          -4.05
             -4          -3.95           -3.9
          -3.85           -3.8          -3.75
           -3.7          -3.65           -3.6
          -3.55           -3.5          -3.45
           -3.4          -3.35           -3.3
          -3.25           -3.2          -3.15
           -3.1          -3.05             -3
          -2.95           -2.9          -2.85
           -2.8          -2.75           -2.7
          -2.65           -2.6          -2.55
           -2.5          -2.45           -2.4
          -2.35           -2.3          -2.25
           -2.2          -2.15           -2.1
          -2.05             -2          -1.95
           -1.9          -1.85           -1.8
          -1.75           -1.7          -1.65
           -1.6          -1.55           -1.5
          -1.45           -1.4          -1.35
           -1.3          -1.25           -1.2
          -1.15           -1.1          -1.05
             -1          -0.95           -0.9
          -0.85           -0.8          -0.75
           -0.7          -0.65           -0.6
          -0.55           -0.5          -0.45
           -0.4          -0.35           -0.3
          -0.25           -0.2          -0.15
           -0.1          -0.05              0
           0.05            0.1           0.15
            0.2           0.25            0.3
           0.35            0.4           0.45
            0.5           0.55            0.6
           0.65            0.7           0.75
            0.8           0.85            0.9
           0.95              1           1.05
            1.1           1.15            1.2
           1.25            1.3           1.35
            1.4           1.45            1.5
           1.55            1.6           1.65
            1.7           1.75            1.8
           1.85            1.9           1.95
              2           2.05            2.1
           2.15            2.2           2.25
            2.3           2.35            2.4
           2.45            2.5           2.55
            2.6           2.65            2.7
           2.75            2.8           2.85
            2.9           2.95              3
           3.05            3.1           3.15
            3.2           3.25            3.3
           3.35            3.4           3.45
            3.5           3.55            3.6
           3.65            3.7           3.75
            3.8           3.85            3.9
           3.95              4           4.05
            4.1           4.15            4.2
           4.25            4.3           4.35
            4.4           4.45            4.5
           4.55            4.6           4.65
            4.7           4.75            4.8
           4.85            4.9           4.95
              5           5.05            5.1
           5.15            5.2           5.25
            5.3           5.35            5.4
           5.45            5.5           5.55
            5.6           5.65            5.7
           5.75            5.8           5.85
            5.9           5.95              6
           6.05            6.1           6.15
            6.2           6.25            6.3
           6.35            6.4           6.45
            6.5           6.55            6.6
           6.65            6.7           6.75
            6.8           6.85            6.9
           6.95              7           7.05
            7.1           7.15            7.2
           7.25            7.3           7.35
            7.4           7.45            7.5
           7.55            7.6           7.65
            7.7           7.75            7.8
           7.85            7.9           7.95
              8           8.05            8.1
           8.15            8.2           8.25
            8.3           8.35            8.4
           8.45            8.5           8.55
            8.6           8.65            8.7
           8.75            8.8           8.85
            8.9           8.95              9
           9.05            9.1           9.15
            9.2           9.25            9.3
           9.35            9.4           9.45
            9.5           9.55            9.6
           9.65            9.7           9.75
            9.8           9.85            9.9
           9.95
   -0.000178797   -0.000187964
   -0.000197601   -0.000207732   -0.000218383
   -0.000229579    -0.00024135   -0.000253724
   -0.000266733   -0.000280409   -0.000294786
     -0.0003099   -0.000325789   -0.000342492
   -0.000360052   -0.000378512   -0.000397919
   -0.000418321   -0.000439769   -0.000462316
    -0.00048602   -0.000510938   -0.000537135
   -0.000564674   -0.000593626   -0.000624061
   -0.000656058   -0.000689695   -0.000725056
    -0.00076223   -0.000801311   -0.000842395
   -0.000885585    -0.00093099   -0.000978723
     -0.0010289    -0.00108166    -0.00113711
    -0.00119541    -0.00125671    -0.00132114
    -0.00138887    -0.00146008    -0.00153494
    -0.00161364    -0.00169637    -0.00178335
    -0.00187478    -0.00197091    -0.00207196
    -0.00217819    -0.00228986    -0.00240727
    -0.00253069    -0.00266044    -0.00279685
    -0.00294024    -0.00309099    -0.00324947
    -0.00341607    -0.00359122    -0.00377534
    -0.00396891     -0.0041724    -0.00438632
    -0.00461121    -0.00484763    -0.00509617
    -0.00535745    -0.00563213    -0.00592089
    -0.00622446    -0.00654359    -0.00687908
    -0.00723177    -0.00760254    -0.00799232
    -0.00840209    -0.00883286    -0.00928571
    -0.00976178     -0.0102623     -0.0107884
     -0.0113415      -0.011923     -0.0125342
     -0.0131768     -0.0138524     -0.0145625
     -0.0153091      -0.016094      -0.016919
     -0.0177864     -0.0186982     -0.0196567
     -0.0206644     -0.0217237     -0.0228372
     -0.0240079     -0.0252385     -0.0265322
     -0.0278921     -0.0293217     -0.0308245
     -0.0324043      -0.034065     -0.0358107
     -0.0376457     -0.0395747     -0.0416024
     -0.0437339     -0.0459744     -0.0483295
      -0.050805      -0.053407     -0.0561419
     -0.0590166     -0.0620381     -0.0652137
     -0.0685513     -0.0720591     -0.0757457
     -0.0796199     -0.0836913     -0.0879697
     -0.0924654     -0.0971892      -0.102153
      -0.107367      -0.112845        -0.1186
      -0.124645      -0.130994      -0.137662
      -0.144664      -0.152016      -0.159734
      -0.167836      -0.176339      -0.185261
      -0.194622      -0.204441      -0.214737
      -0.225532      -0.236845      -0.248699
      -0.261113       -0.27411      -0.287712
      -0.301938       -0.31681      -0.332348
       -0.34857      -0.365493      -0.383135
      -0.401508      -0.420622      -0.440485
        -0.4611      -0.482465      -0.504571
      -0.527403      -0.550937       -0.57514
      -0.599967      -0.625362       -0.65125
      -0.677544      -0.704135      -0.730895
      -0.757671      -0.784286      -0.810532
      -0.836173      -0.860942      -0.884536
      -0.906618      -0.926815      -0.944722
      -0.959897      -0.971872      -0.980153
      -0.984227      -0.983574      -0.977673
       -0.96602      -0.948142      -0.923612
      -0.892071      -0.853249      -0.806977
      -0.753215      -0.692061      -0.623769
      -0.548752      -0.467588      -0.381012
      -0.289906      -0.195282     -0.0982516
              0      0.0982516       0.195282
       0.289906       0.381012       0.467588
       0.548752       0.623769       0.692061
       0.753215       0.806977       0.853249
       0.892071       0.923612       0.948142
        0.96602       0.977673       0.983574
       0.984227       0.980153       0.971872
       0.959897       0.944722       0.926815
       0.906618       0.884536       0.860942
       0.836173       0.810532       0.784286
       0.757671       0.730895       0.704135
       0.677544        0.65125       0.625362
       0.599967        0.57514       0.550937
       0.527403       0.504571       0.482465
         0.4611       0.440485       0.420622
       0.401508       0.383135       0.365493
        0.34857       0.332348        0.31681
       0.301938       0.287712        0.27411
       0.261113       0.248699       0.236845
       0.225532       0.214737       0.204441
       0.194622       0.185261       0.176339
       0.167836       0.159734       0.152016
       0.144664       0.137662       0.130994
       0.124645         0.1186       0.112845
       0.107367       0.102153      0.0971892
      0.0924654      0.0879697      0.0836913
      0.0796199      0.0757457      0.0720591
      0.0685513      0.0652137      0.0620381
      0.0590166      0.0561419       0.053407
       0.050805      0.0483295      0.0459744
      0.0437339      0.0416024      0.0395747
      0.0376457      0.0358107       0.034065
      0.0324043      0.0308245      0.0293217
      0.0278921      0.0265322      0.0252385
      0.0240079      0.0228372      0.0217237
      0.0206644      0.0196567      0.0186982
      0.0177864       0.016919       0.016094
      0.0153091      0.0145625      0.0138524
      0.0131768      0.0125342       0.011923
      0.0113415      0.0107884      0.0102623
     0.00976178     0.00928571     0.00883286
     0.00840209     0.00799232     0.00760254
     0.00723177     0.00687908     0.00654359
     0.00622446     0.00592089     0.00563213
     0.00535745     0.00509617     0.00484763
     0.00461121     0.00438632      0.0041724
     0.00396891     0.00377534     0.00359122
     0.00341607     0.00324947     0.00309099
     0.00294024     0.00279685     0.00266044
     0.00253069     0.00240727     0.00228986
     0.00217819     0.00207196     0.00197091
     0.00187478     0.00178335     0.00169637
     0.00161364     0.00153494     0.00146008
     0.00138887     0.00132114     0.00125671
     0.00119541     0.00113711     0.00108166
      0.0010289    0.000978723     0.00093099
    0.000885585    0.000842395    0.000801311
     0.00076223    0.000725056    0.000689695
    0.000656058    0.000624061    0.000593626
    0.000564674    0.000537135    0.000510938
     0.00048602    0.000462316    0.000439769
    0.000418321    0.000397919    0.000378512
    0.000360052    0.000342492    0.000325789
      0.0003099    0.000294786    0.000280409
    0.000266733    0.000253724     0.00024135
    0.000229579    0.000218383    0.000207732
    0.000197601    0.000187964
ZONE F=BLOCK, T="0.125664", I=400
            -10          -9.95           -9.9
          -9.85           -9.8          -9.75
           -9.7          -9.65           -9.6
          -9.55           -9.5          -9.45
           -9.4          -9.35           -9.3
          -9.25           -9.2          -9.15
           -9.1          -9.05             -9
          -8.95           -8.9          -8.85
           -8.8          -8.75           -8.7
          -8.65           -8.6          -8.55
           -8.5          -8.45           -8.4
          -8.35           -8.3          -8.25
           -8.2          -8.15           -8.1
          -8.05             -8          -7.95
           -7.9          -7.85           -7.8
          -7.75           -7.7          -7.65
           -7.6          -7.55           -7.5
          -7.45           -7.4          -7.35
           -7.3          -7.25           -7.2
          -7.15           -7.1          -7.05
             -7          -6.95           -6.9
          -6.85           -6.8          -6.75
           -6.7          -6.65           -6.6
          -6.55           -6.5          -6.45
           -6.4          -6.35           -6.3
          -6.25           -6.2          -6.15
           -6.1          -6.05             -6
          -5.95           -5.9          -5.85
           -5.8          -5.75           -5.7
          -5.65           -5.6          -5.55
           -5.5          -5.45           -5.4
          -5.35           -5.3          -5.25
           -5.2          -5.15           -5.1
          -5.05             -5          -4.95
           -4.9          -4.85           -4.8
          -4.75           -4.7          -4.65
           -4.6          -4.55           -4.5
          -4.45           -4.4          -4.35
           -4.3          -4.25           -4.2
          -4.15           -4.1          -4.05
             -4          -3.95           -3.9
          -3.85           -3.8          -3.75
           -3.7          -3.65           -3.6
          -3.55           -3.5          -3.45
           -3.4          -3.35           -3.3
          -3.25           -3.2          -3.15
           -3.1          -3.05             -3
          -2.95           -2.9          -2.85
           -2.8          -2.75           -2.7
          -2.65           -2.6          -2.55
           -2.5          -2.45           -2.4
          -2.35           -2.3          -2.25
           -2.2          -2.15           -2.1
          -2.05             -2          -1.95
           -1.9          -1.85           -1.8
          -1.75           -1.7          -1.65
           -1.6          -1.55           -1.5
          -1.45           -1.4          -1.35
           -1.3          -1.25           -1.2
          -1.15           -1.1          -1.05
             -1          -0.95           -0.9
          -0.85           -0.8          -0.75
           -0.7          -0.65           -0.6
          -0.55           -0.5          -0.45
           -0.4          -0.35           -0.3
          -0.25           -0.2          -0.15
           -0.1          -0.05              0
           0.05            0.1           0.15
            0.2           0.25            0.3
           0.35            0.4           0.45
            0.5           0.55            0.6
           0.65            0.7           0.75
            0.8           0.85            0.9
           0.95              1           1.05
            1.1           1.15            1.2
           1.25            1.3           1.35
            1.4           1.45            1.5
           1.55            1.6           1.65
            1.7           1.75            1.8
           1.85            1.9           1.95
              2           2.05            2.1
           2.15            2.2           2.25
            2.3           2.35            2.4
           2.45            2.5           2.55
            2.6           2.65            2.7
           2.75            2.8           2.85
            2.9           2.95              3
           3.05            3.1           3.15
            3.2           3.25            3.3
           3.35            3.4           3.45
            3.5           3.55            3.6
           3.65            3.7           3.75
            3.8           3.85            3.9
           3.95              4           4.05
            4.1           4.15            4.2
           4.25            4.3           4.35
            4.4           4.45            4.5
           4.55            4.6           4.65
            4.7           4.75            4.8
           4.85            4.9           4.95
              5           5.05            5.1
           5.15            5.2           5.25
            5.3           5.35            5.4
           5.45            5.5           5.55
            5.6           5.65            5.7
           5.75            5.8           5.85
            5.9           5.95              6
           6.05            6.1           6.15
            6.2           6.25            6.3
           6.35            6.4           6.45
            6.5           6.55            6.6
           6.65            6.7           6.75
            6.8           6.85            6.9
           6.95              7           7.05
            7.1           7.15            7.2