Title=Realfreq_0
VARIABLES= "x", "fr_0(x,t)"
ZONE F=BLOCK, T="0", I=400
            -10          -9.95           -9.9
          -9.85           -9.8          -9.75
           -9.7          -9.65           -9.6
          -9.55           -9.5          -9.45
           -9.4          -9.35           -9.3
          -9.25           -9.2          -9.15
           -9.1          -9.05             -9
          -8.95           -8.9          -8.85
           -8.8          -8.75           -8.7
          -8.65           -8.6          -8.55
           -8.5          -8.45           -8.4
          -8.35           -8.3          -8.25
           -8.2          -8.15           -8.1
          -8.05             -8          -7.95
           -7.9          -7.85           -7.8
          -7.75           -7.7          -7.65
           -7.6          -7.55           -7.5
          -7.45           -7.4          -7.35
           -7.3          -7.25           -7.2
          -7.15           -7.1          -7.05
             -7          -6.95           -6.9
          -6.85           -6.8          -6.75
           -6.7          -6.65           -6.6
          -6.55           -6.5          -6.45
           -6.4          -6.35           -6.3
          -6.25           -6.2          -6.15
           -6.1          -6.05             -6
          -5.95           -5.9          -5.85
           -5.8          -5.75           -5.7
          -5.65           -5.6          -5.55
           -5.5          -5.45           -5.4
          -5.35           -5.3          -5.25
           -5.2          -5.15           -5.1
          -5.05             -5          -4.95
           -4.9          -4.85           -4.8
          -4.75           -4.7          -4.65
           -4.6          -4.55           -4.5
          -4.45           -4.4          -4.35
           -4.3          -4.25           -4.2
          -4.15           -4.1          -4.05
             -4          -3.95           -3.9
          -3.85           -3.8          -3.75
           -3.7          -3.65           -3.6
          -3.55           -3.5          -3.45
           -3.4          -3.35           -3.3
          -3.25           -3.2          -3.15
           -3.1          -3.05             -3
          -2.95           -2.9          -2.85
           -2.8          -2.75           -2.7
          -2.65           -2.6          -2.55
           -2.5          -2.45           -2.4
          -2.35           -2.3          -2.25
           -2.2          -2.15           -2.1
          -2.05             -2          -1.95
           -1.9          -1.85           -1.8
          -1.75           -1.7          -1.65
           -1.6          -1.55           -1.5
          -1.45           -1.4          -1.35
           -1.3          -1.25           -1.2
          -1.15           -1.1          -1.05
             -1          -0.95           -0.9
          -0.85           -0.8          -0.75
           -0.7          -0.65           -0.6
          -0.55           -0.5          -0.45
           -0.4          -0.35           -0.3
          -0.25           -0.2          -0.15
           -0.1          -0.05              0
           0.05            0.1           0.15
            0.2           0.25            0.3
           0.35            0.4           0.45
            0.5           0.55            0.6
           0.65            0.7           0.75
            0.8           0.85            0.9
           0.95              1           1.05
            1.1           1.15            1.2
           1.25            1.3           1.35
            1.4           1.45            1.5
           1.55            1.6           1.65
            1.7           1.75            1.8
           1.85            1.9           1.95
              2           2.05            2.1
           2.15            2.2           2.25
            2.3           2.35            2.4
           2.45            2.5           2.55
            2.6           2.65            2.7
           2.75            2.8           2.85
            2.9           2.95              3
           3.05            3.1           3.15
            3.2           3.25            3.3
           3.35            3.4           3.45
            3.5           3.55            3.6
           3.65            3.7           3.75
            3.8           3.85            3.9
           3.95              4           4.05
            4.1           4.15            4.2
           4.25            4.3           4.35
            4.4           4.45            4.5
           4.55            4.6           4.65
            4.7           4.75            4.8
           4.85            4.9           4.95
              5           5.05            5.1
           5.15            5.2           5.25
            5.3           5.35            5.4
           5.45            5.5           5.55
            5.6           5.65            5.7
           5.75            5.8           5.85
            5.9           5.95              6
           6.05            6.1           6.15
            6.2           6.25            6.3
           6.35            6.4           6.45
            6.5           6.55            6.6
           6.65            6.7           6.75
            6.8           6.85            6.9
           6.95              7           7.05
            7.1           7.15            7.2
           7.25            7.3           7.35
            7.4           7.45            7.5
           7.55            7.6           7.65
            7.7           7.75            7.8
           7.85            7.9           7.95
              8           8.05            8.1
           8.15            8.2           8.25
            8.3           8.35            8.4
           8.45            8.5           8.55
            8.6           8.65            8.7
           8.75            8.8           8.85
            8.9           8.95              9
           9.05            9.1           9.15
            9.2           9.25            9.3
           9.35            9.4           9.45
            9.5           9.55            9.6
           9.65            9.7           9.75
            9.8           9.85            9.9
           9.95
     0.00182376     0.00191727
     0.00201557     0.00211891     0.00222755
     0.00234176     0.00246182     0.00258804
     0.00272073     0.00286023     0.00300687
     0.00316104     0.00332311     0.00349348
      0.0036726     0.00386089     0.00405884
     0.00426694     0.00448571      0.0047157
     0.00495747     0.00521165     0.00547885
     0.00575975     0.00605505      0.0063655
     0.00669186     0.00703495     0.00739563
      0.0077748     0.00817341     0.00859245
     0.00903298     0.00949609     0.00998294
      0.0104947      0.0110328      0.0115984
       0.012193      0.0128181      0.0134753
      0.0141661      0.0148923      0.0156558
      0.0164584      0.0173021       0.018189
      0.0191215      0.0201016       0.021132
      0.0222153      0.0233539       0.024551
      0.0258093      0.0271321      0.0285227
      0.0299844       0.031521      0.0331362
      0.0348342       0.036619      0.0384951
      0.0404672      0.0425402      0.0447192
      0.0470095      0.0494168      0.0519472
      0.0546067      0.0574019      0.0603397
      0.0634274      0.0666723      0.0700824
      0.0736661       0.077432      0.0813892
      0.0855472      0.0899159      0.0945059
      0.0993279       0.104393       0.109714
       0.115303       0.121172       0.127335
       0.133807       0.140601       0.147732
       0.155217       0.163071       0.171311
       0.179955       0.189019       0.198522
       0.208482       0.218919        0.22985
       0.241295       0.253272       0.265802
       0.278903       0.292592       0.306887
       0.321805        0.33736       0.353567
       0.370437       0.387978       0.406197
       0.425096       0.444673       0.464922
        0.48583       0.507379       0.529542
       0.552286       0.575568       0.599334
       0.623521       0.648054       0.672845
       0.697795       0.722788         0.7477
        0.77239       0.796705       0.820484
       0.843551       0.865725       0.886819
       0.906643       0.925007       0.941728
       0.956628       0.969544       0.980328
       0.988855       0.995021       0.998751
              1       0.998751       0.995021
       0.988855       0.980328       0.969544
       0.956628       0.941728       0.925007
       0.906643       0.886819       0.865725
       0.843551       0.820484       0.796705
        0.77239         0.7477       0.722788
       0.697795       0.672845       0.648054
       0.623521       0.599334       0.575568
       0.552286       0.529542       0.507379
        0.48583       0.464922       0.444673
       0.425096       0.406197       0.387978
       0.370437       0.353567        0.33736
       0.321805       0.306887       0.292592
       0.278903       0.265802       0.253272
       0.241295        0.22985       0.218919
       0.208482       0.198522       0.189019
       0.179955       0.171311       0.163071
       0.155217       0.147732       0.140601
       0.133807       0.127335       0.121172
       0.115303       0.109714       0.104393
      0.0993279      0.0945059      0.0899159
      0.0855472      0.0813892       0.077432
      0.0736661      0.0700824      0.0666723
      0.0634274      0.0603397      0.0574019
      0.0546067      0.0519472      0.0494168
      0.0470095      0.0447192      0.0425402
      0.0404672      0.0384951       0.036619
      0.0348342      0.0331362       0.031521
      0.0299844      0.0285227      0.0271321
      0.0258093       0.024551      0.0233539
      0.0222153       0.021132      0.0201016
      0.0191215       0.018189      0.0173021
      0.0164584      0.0156558      0.0148923
      0.0141661      0.0134753      0.0128181
       0.012193      0.0115984      0.0110328
      0.0104947     0.00998294     0.00949609
     0.00903298     0.00859245     0.00817341
      0.0077748     0.00739563     0.00703495
     0.00669186      0.0063655     0.00605505
     0.00575975     0.00547885     0.00521165
     0.00495747      0.0047157     0.00448571
     0.00426694     0.00405884     0.00386089
      0.0036726     0.00349348     0.00332311
     0.00316104     0.00300687     0.00286023
     0.00272073     0.00258804     0.00246182
     0.00234176     0.00222755     0.00211891
     0.00201557     0.00191727     0.00182376
     0.00173482     0.00165021     0.00156973
     0.00149317     0.00142035     0.00135108
     0.00128518     0.00122251     0.00116288
     0.00110617     0.00105222      0.0010009
    0.000952088    0.000905654    0.000861485
     0.00081947    0.000779504    0.000741487
    0.000705324    0.000670925    0.000638204
    0.000607078    0.000577471    0.000549307
    0.000522517    0.000497034    0.000472793
    0.000449735    0.000427801    0.000406937
     0.00038709    0.000368212    0.000350254
    0.000333172    0.000316923    0.000301466
    0.000286763    0.000272778    0.000259474
     0.00024682    0.000234782    0.000223332
     0.00021244    0.000202079    0.000192223
    0.000182848    0.000173931    0.000165448
    0.000157379    0.000149704    0.000142403
    0.000135457    0.000128851    0.000122567
    0.000116589    0.000110903    0.000105494
    0.000100349    9.54553e-05    9.07999e-05
    8.63715e-05    8.21591e-05    7.81522e-05
    7.43406e-05     7.0715e-05    6.72662e-05
    6.39856e-05     6.0865e-05    5.78965e-05
    5.50729e-05     5.2387e-05     4.9832e-05
    4.74017e-05    4.50899e-05    4.28908e-05
     4.0799e-05    3.88092e-05    3.69165e-05
     3.5116e-05    3.34034e-05    3.17743e-05
    3.02246e-05    2.87506e-05    2.73484e-05
    2.60146e-05    2.47458e-05     2.3539e-05
     2.2391e-05    2.12989e-05    2.02602e-05
    1.92721e-05    1.83322e-05    1.74381e-05
    1.65876e-05    1.57786e-05    1.50091e-05
    1.42771e-05    1.35808e-05    1.29185e-05
    1.22884e-05    1.16891e-05     1.1119e-05
    1.05767e-05    1.00609e-05    9.57023e-06
    9.10349e-06    8.65951e-06    8.23718e-06
    7.83545e-06    7.45331e-06     7.0898e-06
    6.74403e-06    6.41512e-06    6.10225e-06
    5.80464e-06    5.52155e-06    5.25226e-06
     4.9961e-06    4.75244e-06
ZONE F=BLOCK, T="0.0628319", I=400
            -10          -9.95           -9.9
          -9.85           -9.8          -9.75
           -9.7          -9.65           -9.6
          -9.55           -9.5          -9.45
           -9.4          -9.35           -9.3
          -9.25           -9.2          -9.15
           -9.1          -9.05             -9
          -8.95           -8.9          -8.85
           -8.8          -8.75           -8.7
          -8.65           -8.6          -8.55
           -8.5          -8.45           -8.4
          -8.35           -8.3          -8.25
           -8.2          -8.15           -8.1
          -8.05             -8          -7.95
           -7.9          -7.85           -7.8
          -7.75           -7.7          -7.65
           -7.6          -7.55           -7.5
          -7.45           -7.4          -7.35
           -7.3          -7.25           -7.2
          -7.15           -7.1          -7.05
             -7          -6.95           -6.9
          -6.85           -6.8          -6.75
           -6.7          -6.65           -6.6
          -6.55           -6.5          -6.45
           -6.4          -6.35           -6.3
          -6.25           -6.2          -6.15
           -6.1          -6.05             -6
          -5.95           -5.9          -5.85
           -5.8          -5.75           -5.7
          -5.65           -5.6          -5.55
           -5.5          -5.45           -5.4
          -5.35           -5.3          -5.25
           -5.2          -5.15           -5.1
          -5.05             -5          -4.95
           -4.9          -4.85           -4.8
          -4.75           -4.7          -4.65
           -4.6          -4.55           -4.5
          -4.45           -4.4          -4.35
           -4.3          -4.25           -4.2
          -4.15           -4.1          -4.05
             -4          -3.95           -3.9
          -3.85           -3.8          -3.75
           -3.7          -3.65           -3.6
          -3.55           -3.5          -3.45
           -3.4          -3.35           -3.3
          -3.25           -3.2          -3.15
           -3.1          -3.05             -3
          -2.95           -2.9          -2.85
           -2.8          -2.75           -2.7
          -2.65           -2.6          -2.55
           -2.5          -2.45           -2.4
          -2.35           -2.3          -2.25
           -2.2          -2.15           -2.1
          -2.05             -2          -1.95
           -1.9          -1.85           -1.8
          -1.75           -1.7          -1.65
           -1.6          -1.55           -1.5
          -1.45           -1.4          -1.35
           -1.3          -1.25           -1.2
          -1.15           -1.1          -1.05
             -1          -0.95           -0.9
          -0.85           -0.8          -0.75
           -0.7          -0.65           -0.6
          -0.55           -0.5          -0.45
           -0.4          -0.35           -0.3
          -0.25           -0.2          -0.15
           -0.1          -0.05              0
           0.05            0.1           0.15
            0.2           0.25            0.3
           0.35            0.4           0.45
            0.5           0.55            0.6
           0.65            0.7           0.75
            0.8           0.85            0.9
           0.95              1           1.05
            1.1           1.15            1.2
           1.25            1.3           1.35
            1.4           1.45            1.5
           1.55            1.6           1.65
            1.7           1.75            1.8
           1.85            1.9           1.95
              2           2.05            2.1
           2.15            2.2           2.25
            2.3           2.35            2.4
           2.45            2.5           2.55
            2.6           2.65            2.7
           2.75            2.8           2.85
            2.9           2.95              3
           3.05            3.1           3.15
            3.2           3.25            3.3
           3.35            3.4           3.45
            3.5           3.55            3.6
           3.65            3.7           3.75
            3.8           3.85            3.9
           3.95              4           4.05
            4.1           4.15            4.2
           4.25            4.3           4.35
            4.4           4.45            4.5
           4.55            4.6           4.65
            4.7           4.75            4.8
           4.85            4.9           4.95
              5           5.05            5.1
           5.15            5.2           5.25
            5.3           5.35            5.4
           5.45            5.5           5.55
            5.6           5.65            5.7
           5.75            5.8           5.85
            5.9           5.95              6
           6.05            6.1           6.15
            6.2           6.25            6.3
           6.35            6.4           6.45
            6.5           6.55            6.6
           6.65            6.7           6.75
            6.8           6.85            6.9
           6.95              7           7.05
            7.1           7.15            7.2
           7.25            7.3           7.35
            7.4           7.45            7.5
           7.55            7.6           7.65
            7.7           7.75            7.8
           7.85            7.9           7.95
              8           8.05            8.1
           8.15            8.2           8.25
            8.3           8.35            8.4
           8.45            8.5           8.55
            8.6           8.65            8.7
           8.75            8.8           8.85
            8.9           8.95              9
           9.05            9.1           9.15
            9.2           9.25            9.3
           9.35            9.4           9.45
            9.5           9.55            9.6
           9.65            9.7           9.75
            9.8           9.85            9.9
           9.95
     0.00180475     0.00189728
     0.00199456     0.00209682     0.00220433
     0.00231735     0.00243616     0.00256106
     0.00269237     0.00283041     0.00297553
     0.00312809     0.00328847     0.00345707
     0.00363431     0.00382065     0.00401654
     0.00422247     0.00443895     0.00466654
      0.0049058     0.00515732     0.00542174
     0.00569971     0.00599194     0.00629914
      0.0066221     0.00696162     0.00731854
     0.00769375     0.00808821     0.00850288
     0.00893882      0.0093971     0.00987888
      0.0103854      0.0109178      0.0114775
      0.0120659      0.0126845      0.0133348
      0.0140184      0.0147371      0.0154926
      0.0162868      0.0171217      0.0179994
      0.0189221      0.0198921      0.0209118
      0.0219837      0.0231105      0.0242951
      0.0255403      0.0268493      0.0282253
      0.0296719      0.0311924      0.0327908
      0.0344711      0.0362373      0.0380939
      0.0400454      0.0420968       0.044253
      0.0465195      0.0489017      0.0514057
      0.0540375      0.0568036      0.0597108
      0.0627662      0.0659773      0.0693519
      0.0728982      0.0766249      0.0805408
      0.0846554      0.0889787      0.0935208
      0.0982925       0.103305       0.108571
       0.114101       0.119909       0.126008
       0.132412       0.139135       0.146192
       0.153599       0.161371       0.169526
       0.178079       0.187049       0.196453
       0.206309       0.216637       0.227454
       0.238779       0.250632       0.263032
       0.275995       0.289542       0.303688
        0.31845       0.333844       0.349882
       0.366576       0.383934       0.401963
       0.420665       0.440038       0.460076
       0.480766        0.50209       0.524022
       0.546529       0.569568       0.593087
       0.617022       0.641299       0.665832
       0.690521       0.715254       0.739906
       0.764338       0.788401       0.811931
       0.834758       0.856701       0.877575
       0.897192       0.915365       0.931911
       0.946656       0.959437       0.970109
       0.978547       0.984649        0.98834
       0.989576        0.98834       0.984649
       0.978547       0.970109       0.959437
       0.946656       0.931911       0.915365
       0.897192       0.877575       0.856701
       0.834758       0.811931       0.788401
       0.764338       0.739906       0.715254
       0.690521       0.665832       0.641299
       0.617022       0.593087       0.569568
       0.546529       0.524022        0.50209
       0.480766       0.460076       0.440038
       0.420665       0.401963       0.383934
       0.366576       0.349882       0.333844
        0.31845       0.303688       0.289542
       0.275995       0.263032       0.250632
       0.238779       0.227454       0.216637
       0.206309       0.196453       0.187049
       0.178079       0.169526       0.161371
       0.153599       0.146192       0.139135
       0.132412       0.126008       0.119909
       0.114101       0.108571       0.103305
      0.0982925      0.0935208      0.0889787
      0.0846554      0.0805408      0.0766249
      0.0728982      0.0693519      0.0659773
      0.0627662      0.0597108      0.0568036
      0.0540375      0.0514057      0.0489017
      0.0465195       0.044253      0.0420968
      0.0400454      0.0380939      0.0362373
      0.0344711      0.0327908      0.0311924
      0.0296719      0.0282253      0.0268493
      0.0255403      0.0242951      0.0231105
      0.0219837      0.0209118      0.0198921
      0.0189221      0.0179994      0.0171217
      0.0162868      0.0154926      0.0147371
      0.0140184      0.0133348      0.0126845
      0.0120659      0.0114775      0.0109178
      0.0103854     0.00987888      0.0093971
     0.00893882     0.00850288     0.00808821
     0.00769375     0.00731854     0.00696162
      0.0066221     0.00629914     0.00599194
     0.00569971     0.00542174     0.00515732
      0.0049058     0.00466654     0.00443895
     0.00422247     0.00401654     0.00382065
     0.00363431     0.00345707     0.00328847
     0.00312809     0.00297553     0.00283041
     0.00269237     0.00256106     0.00243616
     0.00231735     0.00220433     0.00209682
     0.00199456     0.00189728     0.00180475
     0.00171673     0.00163301     0.00155336
     0.00147761     0.00140554     0.00133699
     0.00127179     0.00120976     0.00115076
     0.00109464     0.00104125    0.000990469
    0.000942164    0.000896214    0.000852505
    0.000810928    0.000771378    0.000733758
    0.000697972    0.000663932    0.000631551
     0.00060075    0.000571451    0.000543581
     0.00051707    0.000491853    0.000467865
    0.000445047    0.000423341    0.000402695
    0.000383055    0.000364373    0.000346603
    0.000329699    0.000313619    0.000298324
    0.000283774    0.000269934     0.00025677
    0.000244247    0.000232335    0.000221004
    0.000210225    0.000199972     0.00019022
    0.000180942    0.000172118    0.000163724
    0.000155739    0.000148143    0.000140918
    0.000134045    0.000127508    0.000121289
    0.000115374    0.000109747    0.000104395
    9.93033e-05    9.44603e-05    8.98534e-05
    8.54712e-05    8.13027e-05    7.73375e-05
    7.35657e-05    6.99779e-05     6.6565e-05
    6.33186e-05    6.02305e-05     5.7293e-05
    5.44988e-05    5.18409e-05    4.93126e-05
    4.69076e-05    4.46199e-05    4.24437e-05
    4.03737e-05    3.84047e-05    3.65317e-05
      3.475e-05    3.30552e-05    3.14431e-05
    2.99096e-05    2.84509e-05    2.70633e-05
    2.57434e-05    2.44879e-05    2.32936e-05
    2.21576e-05    2.10769e-05     2.0049e-05
    1.90712e-05    1.81411e-05    1.72563e-05
    1.64147e-05    1.56142e-05    1.48527e-05
    1.41283e-05    1.34392e-05    1.27838e-05
    1.21603e-05    1.15673e-05    1.10031e-05
    1.04665e-05    9.95604e-06    9.47048e-06
     9.0086e-06    8.56924e-06    8.15131e-06
    7.75377e-06    7.37561e-06     7.0159e-06
    6.67373e-06    6.34825e-06    6.03864e-06
    5.74413e-06    5.46399e-06    5.19751e-06
    4.94402e-06     4.7029e-06
ZONE F=BLOCK, T="0.125664", I=400
            -10          -9.95           -9.9
          -9.85           -9.8          -9.75
           -9.7          -9.65           -9.6
          -9.55           -9.5          -9.45
           -9.4          -9.35           -9.3
          -9.25           -9.2          -9.15
           -9.1          -9.05             -9
          -8.95           -8.9          -8.85
           -8.8          -8.75           -8.7
          -8.65           -8.6          -8.55
           -8.5          -8.45           -8.4
          -8.35           -8.3          -8.25
           -8.2          -8.15           -8.1
          -8.05             -8          -7.95
           -7.9          -7.85           -7.8
          -7.75           -7.7          -7.65
           -7.6          -7.55           -7.5
          -7.45           -7.4          -7.35
           -7.3          -7.25           -7.2
          -7.15           -7.1          -7.05
             -7          -6.95           -6.9
          -6.85           -6.8          -6.75
           -6.7          -6.65           -6.6
          -6.55           -6.5          -6.45
           -6.4          -6.35           -6.3
          -6.25           -6.2          -6.15
           -6.1          -6.05             -6
          -5.95           -5.9          -5.85
           -5.8          -5.75           -5.7
          -5.65           -5.6          -5.55
           -5.5          -5.45           -5.4
          -5.35           -5.3          -5.25
           -5.2          -5.15           -5.1
          -5.05             -5          -4.95
           -4.9          -4.85           -4.8
          -4.75           -4.7          -4.65
           -4.6          -4.55           -4.5
          -4.45           -4.4          -4.35
           -4.3          -4.25           -4.2
          -4.15           -4.1          -4.05
             -4          -3.95           -3.9
          -3.85           -3.8          -3.75
           -3.7          -3.65           -3.6
          -3.55           -3.5          -3.45
           -3.4          -3.35           -3.3
          -3.25           -3.2          -3.15
           -3.1          -3.05             -3
          -2.95           -2.9          -2.85
           -2.8          -2.75           -2.7
          -2.65           -2.6          -2.55
           -2.5          -2.45           -2.4
          -2.35           -2.3          -2.25
           -2.2          -2.15           -2.1
          -2.05             -2          -1.95
           -1.9          -1.85           -1.8
          -1.75           -1.7          -1.65
           -1.6          -1.55           -1.5
          -1.45           -1.4          -1.35
           -1.3          -1.25           -1.2
          -1.15           -1.1          -1.05
             -1          -0.95           -0.9
          -0.85           -0.8          -0.75
           -0.7          -0.65           -0.6
          -0.55           -0.5          -0.45
           -0.4          -0.35           -0.3
          -0.25           -0.2          -0.15
           -0.1          -0.05              0
           0.05            0.1           0.15
            0.2           0.25            0.3
           0.35            0.4           0.45
            0.5           0.55            0.6
           0.65            0.7           0.75
            0.8           0.85            0.9
           0.95              1           1.05
            1.1           1.15            1.2
           1.25            1.3           1.35
            1.4           1.45            1.5
           1.55            1.6           1.65
            1.7           1.75            1.8
           1.85            1.9           1.95
              2           2.05            2.1
           2.15            2.2           2.25
            2.3           2.35            2.4
           2.45            2.5           2.55
            2.6           2.65            2.7
           2.75            2.8           2.85
            2.9           2.95              3
           3.05            3.1           3.15
            3.2           3.25            3.3
           3.35            3.4           3.45
            3.5           3.55            3.6
           3.65            3.7           3.75
            3.8           3.85            3.9
           3.95              4           4.05
            4.1           4.15            4.2
           4.25            4.3           4.35
            4.4           4.45            4.5
           4.55            4.6           4.65
            4.7           4.75            4.8
           4.85            4.9           4.95
              5           5.05            5.1
           5.15            5.2           5.25
            5.3           5.35            5.4
           5.45            5.5           5.55
            5.6           5.65            5.7
           5.75            5.8           5.85
            5.9           5.95              6
           6.05            6.1           6.15
            6.2           6.25            6.3
           6.35            6.4           6.45
            6.5           6.55            6.6
           6.65            6.7           6.75
            6.8           6.85            6.9
           6.95              7           7.05
            7.1           7.15            7.2