title = "SUGAR TECPLOT"
variables = "X", "Y", "Z", "Var"
 zone T = "Mesh", I= 400, J=1, K=1, DATAPACKING=BLOCK
 VARLOCATION = ([4] = CELLCENTERED)

              0           0.05            0.1           0.15            0.2           0.25            0.3           0.35            0.4           0.45            0.5           0.55            0.6           0.65            0.7           0.75            0.8           0.85            0.9           0.95              1           1.05            1.1           1.15            1.2           1.25            1.3           1.35            1.4           1.45            1.5           1.55            1.6           1.65            1.7           1.75            1.8           1.85            1.9           1.95              2           2.05            2.1           2.15            2.2           2.25            2.3           2.35            2.4           2.45            2.5           2.55            2.6           2.65            2.7           2.75            2.8           2.85            2.9           2.95              3           3.05            3.1           3.15            3.2           3.25            3.3           3.35            3.4           3.45            3.5           3.55            3.6           3.65            3.7           3.75            3.8           3.85            3.9           3.95              4           4.05            4.1           4.15            4.2           4.25            4.3           4.35            4.4           4.45            4.5           4.55            4.6           4.65            4.7           4.75            4.8           4.85            4.9           4.95              5
           5.05            5.1           5.15            5.2           5.25            5.3           5.35            5.4           5.45            5.5           5.55            5.6           5.65            5.7           5.75            5.8           5.85            5.9           5.95              6           6.05            6.1           6.15            6.2           6.25            6.3           6.35            6.4           6.45            6.5           6.55            6.6           6.65            6.7           6.75            6.8           6.85            6.9           6.95              7           7.05            7.1           7.15            7.2           7.25            7.3           7.35            7.4           7.45            7.5           7.55            7.6           7.65            7.7           7.75            7.8           7.85            7.9           7.95              8           8.05            8.1           8.15            8.2           8.25            8.3           8.35            8.4           8.45            8.5           8.55            8.6           8.65            8.7           8.75            8.8           8.85            8.9           8.95              9           9.05            9.1           9.15            9.2           9.25            9.3           9.35            9.4           9.45            9.5           9.55            9.6           9.65            9.7           9.75            9.8           9.85            9.9           9.95             10
          10.05           10.1          10.15           10.2          10.25           10.3          10.35           10.4          10.45           10.5          10.55           10.6          10.65           10.7          10.75           10.8          10.85           10.9          10.95             11          11.05           11.1          11.15           11.2          11.25           11.3          11.35           11.4          11.45           11.5          11.55           11.6          11.65           11.7          11.75           11.8          11.85           11.9          11.95             12          12.05           12.1          12.15           12.2          12.25           12.3          12.35           12.4          12.45           12.5          12.55           12.6          12.65           12.7          12.75           12.8          12.85           12.9          12.95             13          13.05           13.1          13.15           13.2          13.25           13.3          13.35           13.4          13.45           13.5          13.55           13.6          13.65           13.7          13.75           13.8          13.85           13.9          13.95             14          14.05           14.1          14.15           14.2          14.25           14.3          14.35           14.4          14.45           14.5          14.55           14.6          14.65           14.7          14.75           14.8          14.85           14.9          14.95             15
          15.05           15.1          15.15           15.2          15.25           15.3          15.35           15.4          15.45           15.5          15.55           15.6          15.65           15.7          15.75           15.8          15.85           15.9          15.95             16          16.05           16.1          16.15           16.2          16.25           16.3          16.35           16.4          16.45           16.5          16.55           16.6          16.65           16.7          16.75           16.8          16.85           16.9          16.95             17          17.05           17.1          17.15           17.2          17.25           17.3          17.35           17.4          17.45           17.5          17.55           17.6          17.65           17.7          17.75           17.8          17.85           17.9          17.95             18          18.05           18.1          18.15           18.2          18.25           18.3          18.35           18.4          18.45           18.5          18.55           18.6          18.65           18.7          18.75           18.8          18.85           18.9          18.95             19          19.05           19.1          19.15           19.2          19.25           19.3          19.35           19.4          19.45           19.5          19.55           19.6          19.65           19.7          19.75           19.8          19.85           19.9          19.95

              0              0              0              0              0              0              0              0              0              0              0              0              0              0              0              0              0              0              0              0              0              0              0              0              0              0              0              0              0              0              0              0              0              0              0              0              0              0              0              0              0              0              0              0              0              0              0              0              0              0              0              0              0              0              0              0              0              0              0              0              0              0              0              0              0              0              0              0              0              0              0              0              0              0              0              0              0              0              0              0              0              0              0              0              0              0              0              0              0              0              0              0              0              0              0              0              0              0              0              0              0
              0              0              0              0              0              0              0              0              0              0              0              0              0              0              0              0              0              0              0              0              0              0              0              0              0              0              0              0              0              0              0              0              0              0              0              0              0              0              0              0              0              0              0              0              0              0              0              0              0              0              0              0              0              0              0              0              0              0              0              0              0              0              0              0              0              0              0              0              0              0              0              0              0              0              0              0              0              0              0              0              0              0              0              0              0              0              0              0              0              0              0              0              0              0              0              0              0              0              0              0
              0              0              0              0              0              0              0              0              0              0              0              0              0              0              0              0              0              0              0              0              0              0              0              0              0              0              0              0              0              0              0              0              0              0              0              0              0              0              0              0              0              0              0              0              0              0              0              0              0              0              0              0              0              0              0              0              0              0              0              0              0              0              0              0              0              0              0              0              0              0              0              0              0              0              0              0              0              0              0              0              0              0              0              0              0              0              0              0              0              0              0              0              0              0              0              0              0              0              0              0
              0              0              0              0              0              0              0              0              0              0              0              0              0              0              0              0              0              0              0              0              0              0              0              0              0              0              0              0              0              0              0              0              0              0              0              0              0              0              0              0              0              0              0              0              0              0              0              0              0              0              0              0              0              0              0              0              0              0              0              0              0              0              0              0              0              0              0              0              0              0              0              0              0              0              0              0              0              0              0              0              0              0              0              0              0              0              0              0              0              0              0              0              0              0              0              0              0              0              0

              0              0              0              0              0              0              0              0              0              0              0              0              0              0              0              0              0              0              0              0              0              0              0              0              0              0              0              0              0              0              0              0              0              0              0              0              0              0              0              0              0              0              0              0              0              0              0              0              0              0              0              0              0              0              0              0              0              0              0              0              0              0              0              0              0              0              0              0              0              0              0              0              0              0              0              0              0              0              0              0              0              0              0              0              0              0              0              0              0              0              0              0              0              0              0              0              0              0              0              0              0
              0              0              0              0              0              0              0              0              0              0              0              0              0              0              0              0              0              0              0              0              0              0              0              0              0              0              0              0              0              0              0              0              0              0              0              0              0              0              0              0              0              0              0              0              0              0              0              0              0              0              0              0              0              0              0              0              0              0              0              0              0              0              0              0              0              0              0              0              0              0              0              0              0              0              0              0              0              0              0              0              0              0              0              0              0              0              0              0              0              0              0              0              0              0              0              0              0              0              0              0
              0              0              0              0              0              0              0              0              0              0              0              0              0              0              0              0              0              0              0              0              0              0              0              0              0              0              0              0              0              0              0              0              0              0              0              0              0              0              0              0              0              0              0              0              0              0              0              0              0              0              0              0              0              0              0              0              0              0              0              0              0              0              0              0              0              0              0              0              0              0              0              0              0              0              0              0              0              0              0              0              0              0              0              0              0              0              0              0              0              0              0              0              0              0              0              0              0              0              0              0
              0              0              0              0              0              0              0              0              0              0              0              0              0              0              0              0              0              0              0              0              0              0              0              0              0              0              0              0              0              0              0              0              0              0              0              0              0              0              0              0              0              0              0              0              0              0              0              0              0              0              0              0              0              0              0              0              0              0              0              0              0              0              0              0              0              0              0              0              0              0              0              0              0              0              0              0              0              0              0              0              0              0              0              0              0              0              0              0              0              0              0              0              0              0              0              0              0              0              0

         1.75153e-05         1.84133e-05         1.93574e-05
         2.03499e-05         2.13932e-05         2.24901e-05
         2.36432e-05         2.48554e-05         2.61297e-05
         2.74695e-05         2.88779e-05         3.03584e-05
         3.19149e-05         3.35513e-05         3.52715e-05
         3.70799e-05          3.8981e-05         4.09796e-05
         4.30807e-05         4.52895e-05         4.76115e-05
         5.00526e-05         5.26189e-05         5.53167e-05
         5.81528e-05         6.11344e-05         6.42688e-05
          6.7564e-05         7.10281e-05         7.46698e-05
         7.84981e-05         8.25228e-05         8.67539e-05
         9.12018e-05         9.58779e-05         0.000100793
         0.000105961         0.000111394         0.000117106
          0.00012311         0.000129422         0.000136057
         0.000143033         0.000150367         0.000158075
          0.00016618         0.000174701         0.000183658
         0.000193074         0.000202973          0.00021338
         0.000224321         0.000235821         0.000247912
         0.000260623         0.000273985         0.000288032
           0.0003028         0.000318325         0.000334646
         0.000351803         0.000369841         0.000388803
         0.000408737         0.000429693         0.000451724
         0.000474884         0.000499231         0.000524828
         0.000551736         0.000580024         0.000609761
         0.000641024         0.000673889          0.00070844
         0.000744761         0.000782945         0.000823087
         0.000865286         0.000909648         0.000956285
          0.00100531          0.00105686          0.00111104
            0.001168          0.00122788          0.00129084
          0.00135701          0.00142658          0.00149971
           0.0015766          0.00165743          0.00174239
          0.00183171          0.00192561          0.00202433
           0.0021281          0.00223719          0.00235186
          0.00247242          0.00259915          0.00273237
          0.00287242          0.00301963          0.00317439
          0.00333708          0.00350809          0.00368786
          0.00387682          0.00407546          0.00428426
          0.00450375          0.00473446          0.00497696
          0.00523186          0.00549979           0.0057814
          0.00607738          0.00638848          0.00671544
          0.00705908          0.00742021          0.00779975
          0.00819859          0.00861771          0.00905812
          0.00952087           0.0100071           0.0105179
           0.0110546           0.0116183           0.0122105
           0.0128325           0.0134857           0.0141716
           0.0148918           0.0156479           0.0164416
           0.0172745           0.0181486           0.0190656
           0.0200275           0.0210362           0.0220936
           0.0232019           0.0243631           0.0255792
           0.0268525           0.0281849           0.0295785
           0.0310354           0.0325575           0.0341467
           0.0358046           0.0375328           0.0393326
           0.0412051            0.043151           0.0451705
           0.0472634            0.049429           0.0516656
           0.0539711           0.0563421           0.0587742
           0.0612619            0.063798           0.0663738
           0.0689787           0.0716002           0.0742233
           0.0768305           0.0794016           0.0819135
           0.0843399           0.0866513           0.0888145
            0.090793           0.0925471           0.0940337
           0.0952069           0.0960181           0.0964172
           0.0963532           0.0957751           0.0946336
           0.0928822           0.0904792           0.0873894
           0.0835862           0.0790533           0.0737867
            0.067796           0.0611059           0.0537571
            0.045806           0.0373248           0.0283999
           0.0191303          0.00962496         -1.3704e-09
         -0.00962496          -0.0191303          -0.0283999
          -0.0373248           -0.045806          -0.0537571
          -0.0611059          -0.0677959          -0.0737867
          -0.0790533          -0.0835862          -0.0873894
          -0.0904792          -0.0928822          -0.0946336
          -0.0957751          -0.0963532          -0.0964172
          -0.0960181          -0.0952069          -0.0940337
          -0.0925471           -0.090793          -0.0888144
          -0.0866513          -0.0843399          -0.0819135
          -0.0794016          -0.0768304          -0.0742233
          -0.0716002          -0.0689788          -0.0663738
           -0.063798          -0.0612619          -0.0587742
          -0.0563421          -0.0539711          -0.0516656
          -0.0494289          -0.0472634          -0.0451705
           -0.043151          -0.0412051          -0.0393326
          -0.0375328          -0.0358046          -0.0341467
          -0.0325575          -0.0310355          -0.0295786
          -0.0281849          -0.0268525          -0.0255793
          -0.0243631          -0.0232019          -0.0220936
          -0.0210362          -0.0200275          -0.0190657
          -0.0181486          -0.0172746          -0.0164416
          -0.0156479          -0.0148918          -0.0141716
          -0.0134857          -0.0128325          -0.0122105
          -0.0116184          -0.0110546          -0.0105179
          -0.0100071         -0.00952089         -0.00905813
         -0.00861772          -0.0081986         -0.00779975
         -0.00742022         -0.00705908         -0.00671545
         -0.00638849         -0.00607739         -0.00578141
          -0.0054998         -0.00523187         -0.00497697
         -0.00473447         -0.00450376         -0.00428427
         -0.00407547         -0.00387683         -0.00368786
          -0.0035081         -0.00333708          -0.0031744
         -0.00301964         -0.00287242         -0.00273237
         -0.00259915         -0.00247242         -0.00235187
         -0.00223719          -0.0021281         -0.00202433
         -0.00192562         -0.00183172         -0.00174239
         -0.00165743          -0.0015766         -0.00149972
         -0.00142658         -0.00135701         -0.00129083
         -0.00122788           -0.001168         -0.00111104
         -0.00105686         -0.00100531        -0.000956287
         -0.00090965        -0.000865287        -0.000823088
        -0.000782947        -0.000744763        -0.000708441
         -0.00067389        -0.000641025        -0.000609762
        -0.000580024        -0.000551736        -0.000524828
        -0.000499232        -0.000474885        -0.000451725
        -0.000429694        -0.000408738        -0.000388803
        -0.000369841        -0.000351804        -0.000334646
        -0.000318326        -0.000302801        -0.000288033
        -0.000273986        -0.000260623        -0.000247912
        -0.000235822        -0.000224321         -0.00021338
        -0.000202974        -0.000193074        -0.000183658
        -0.000174701        -0.000166181        -0.000158076
        -0.000150367        -0.000143033        -0.000136057
        -0.000129422         -0.00012311        -0.000117106
        -0.000111394        -0.000105962        -0.000100794
         -9.5878e-05         -9.1202e-05         -8.6754e-05
         -8.2523e-05        -7.84983e-05        -7.46699e-05
        -7.10282e-05        -6.75641e-05         -6.4269e-05
        -6.11345e-05         -5.8153e-05        -5.53168e-05
         -5.2619e-05        -5.00527e-05        -4.76116e-05
        -4.52896e-05        -4.30808e-05        -4.09797e-05
        -3.89811e-05          -3.708e-05        -3.52715e-05
        -3.35513e-05         -3.1915e-05        -3.03585e-05
        -2.88779e-05        -2.74695e-05        -2.61298e-05
        -2.48554e-05        -2.36432e-05        -2.24901e-05
        -2.13933e-05        -2.03499e-05        -1.93574e-05
        -1.84134e-05         1.69746e-05         1.78449e-05
         1.87598e-05         1.97217e-05         2.07328e-05
         2.17958e-05         2.29133e-05         2.40881e-05
         2.53231e-05         2.66215e-05         2.79864e-05
         2.94212e-05         3.09297e-05         3.25155e-05
         3.41826e-05         3.59352e-05         3.77776e-05
         3.97145e-05         4.17508e-05         4.38914e-05
         4.61417e-05         4.85075e-05         5.09945e-05
          5.3609e-05         5.63576e-05         5.92471e-05
         6.22847e-05         6.54782e-05         6.88353e-05
         7.23646e-05         7.60748e-05         7.99752e-05
         8.40757e-05         8.83863e-05          9.2918e-05
         9.76817e-05          0.00010269         0.000107955
          0.00011349         0.000119309         0.000125426
         0.000131857         0.000138617         0.000145725
         0.000153195          0.00016105         0.000169307
         0.000177988         0.000187114         0.000196707
         0.000206792         0.000217396         0.000228541
         0.000240259         0.000252577         0.000265527
          0.00027914         0.000293452         0.000308498
         0.000324315         0.000340942         0.000358424
           0.0003768         0.000396119         0.000416428
         0.000437779         0.000460223         0.000483819
         0.000508625         0.000534703         0.000562118
         0.000590937         0.000621235         0.000653085
         0.000686569          0.00072177         0.000758775
         0.000797677         0.000838573         0.000881566
         0.000926764         0.000974275          0.00102423
          0.00107674          0.00113194          0.00118997
          0.00125098          0.00131511          0.00138254
          0.00145341          0.00152793          0.00160626
           0.0016886          0.00177517          0.00186617
          0.00196183           0.0020624          0.00216812
          0.00227926          0.00239609          0.00251891
          0.00264802          0.00278374          0.00292641
           0.0030764          0.00323406          0.00339979
          0.00357401          0.00375714          0.00394965
            0.004152          0.00436472          0.00458831
          0.00482332          0.00507035             0.00533
          0.00560292          0.00588977          0.00619126
          0.00650813          0.00684115          0.00719114
          0.00755896          0.00794549          0.00835167
          0.00877848          0.00922695          0.00969816
           0.0101932           0.0107133           0.0112597
           0.0118336           0.0124363           0.0130694
           0.0137341           0.0144321           0.0151649
            0.015934           0.0167413           0.0175883
           0.0184771           0.0194092           0.0203867
           0.0214116           0.0224856            0.023611
           0.0247896           0.0260235           0.0273148
           0.0286654           0.0300773           0.0315524
           0.0330925           0.0346993           0.0363741
           0.0381184           0.0399331           0.0418189
            0.043776           0.0458043            0.047903
           0.0500706           0.0523049           0.0546027
           0.0569598           0.0593706           0.0618284
           0.0643247           0.0668493           0.0693898
           0.0719319           0.0744586           0.0769503
           0.0793847           0.0817362           0.0839762
           0.0860726           0.0879901           0.0896901
           0.0911308           0.0922677           0.0930539