title = "SUGAR TECPLOT"
variables = "X", "Y", "Z", "Var"
 zone T = "Mesh", I= 400, J=1, K=1, DATAPACKING=BLOCK
 VARLOCATION = ([4] = CELLCENTERED)

              0           0.05            0.1           0.15            0.2           0.25            0.3           0.35            0.4           0.45            0.5           0.55            0.6           0.65            0.7           0.75            0.8           0.85            0.9           0.95              1           1.05            1.1           1.15            1.2           1.25            1.3           1.35            1.4           1.45            1.5           1.55            1.6           1.65            1.7           1.75            1.8           1.85            1.9           1.95              2           2.05            2.1           2.15            2.2           2.25            2.3           2.35            2.4           2.45            2.5           2.55            2.6           2.65            2.7           2.75            2.8           2.85            2.9           2.95              3           3.05            3.1           3.15            3.2           3.25            3.3           3.35            3.4           3.45            3.5           3.55            3.6           3.65            3.7           3.75            3.8           3.85            3.9           3.95              4           4.05            4.1           4.15            4.2           4.25            4.3           4.35            4.4           4.45            4.5           4.55            4.6           4.65            4.7           4.75            4.8           4.85            4.9           4.95              5
           5.05            5.1           5.15            5.2           5.25            5.3           5.35            5.4           5.45            5.5           5.55            5.6           5.65            5.7           5.75            5.8           5.85            5.9           5.95              6           6.05            6.1           6.15            6.2           6.25            6.3           6.35            6.4           6.45            6.5           6.55            6.6           6.65            6.7           6.75            6.8           6.85            6.9           6.95              7           7.05            7.1           7.15            7.2           7.25            7.3           7.35            7.4           7.45            7.5           7.55            7.6           7.65            7.7           7.75            7.8           7.85            7.9           7.95              8           8.05            8.1           8.15            8.2           8.25            8.3           8.35            8.4           8.45            8.5           8.55            8.6           8.65            8.7           8.75            8.8           8.85            8.9           8.95              9           9.05            9.1           9.15            9.2           9.25            9.3           9.35            9.4           9.45            9.5           9.55            9.6           9.65            9.7           9.75            9.8           9.85            9.9           9.95             10
          10.05           10.1          10.15           10.2          10.25           10.3          10.35           10.4          10.45           10.5          10.55           10.6          10.65           10.7          10.75           10.8          10.85           10.9          10.95             11          11.05           11.1          11.15           11.2          11.25           11.3          11.35           11.4          11.45           11.5          11.55           11.6          11.65           11.7          11.75           11.8          11.85           11.9          11.95             12          12.05           12.1          12.15           12.2          12.25           12.3          12.35           12.4          12.45           12.5          12.55           12.6          12.65           12.7          12.75           12.8          12.85           12.9          12.95             13          13.05           13.1          13.15           13.2          13.25           13.3          13.35           13.4          13.45           13.5          13.55           13.6          13.65           13.7          13.75           13.8          13.85           13.9          13.95             14          14.05           14.1          14.15           14.2          14.25           14.3          14.35           14.4          14.45           14.5          14.55           14.6          14.65           14.7          14.75           14.8          14.85           14.9          14.95             15
          15.05           15.1          15.15           15.2          15.25           15.3          15.35           15.4          15.45           15.5          15.55           15.6          15.65           15.7          15.75           15.8          15.85           15.9          15.95             16          16.05           16.1          16.15           16.2          16.25           16.3          16.35           16.4          16.45           16.5          16.55           16.6          16.65           16.7          16.75           16.8          16.85           16.9          16.95             17          17.05           17.1          17.15           17.2          17.25           17.3          17.35           17.4          17.45           17.5          17.55           17.6          17.65           17.7          17.75           17.8          17.85           17.9          17.95             18          18.05           18.1          18.15           18.2          18.25           18.3          18.35           18.4          18.45           18.5          18.55           18.6          18.65           18.7          18.75           18.8          18.85           18.9          18.95             19          19.05           19.1          19.15           19.2          19.25           19.3          19.35           19.4          19.45           19.5          19.55           19.6          19.65           19.7          19.75           19.8          19.85           19.9          19.95

              0              0              0              0              0              0              0              0              0              0              0              0              0              0              0              0              0              0              0              0              0              0              0              0              0              0              0              0              0              0              0              0              0              0              0              0              0              0              0              0              0              0              0              0              0              0              0              0              0              0              0              0              0              0              0              0              0              0              0              0              0              0              0              0              0              0              0              0              0              0              0              0              0              0              0              0              0              0              0              0              0              0              0              0              0              0              0              0              0              0              0              0              0              0              0              0              0              0              0              0              0
              0              0              0              0              0              0              0              0              0              0              0              0              0              0              0              0              0              0              0              0              0              0              0              0              0              0              0              0              0              0              0              0              0              0              0              0              0              0              0              0              0              0              0              0              0              0              0              0              0              0              0              0              0              0              0              0              0              0              0              0              0              0              0              0              0              0              0              0              0              0              0              0              0              0              0              0              0              0              0              0              0              0              0              0              0              0              0              0              0              0              0              0              0              0              0              0              0              0              0              0
              0              0              0              0              0              0              0              0              0              0              0              0              0              0              0              0              0              0              0              0              0              0              0              0              0              0              0              0              0              0              0              0              0              0              0              0              0              0              0              0              0              0              0              0              0              0              0              0              0              0              0              0              0              0              0              0              0              0              0              0              0              0              0              0              0              0              0              0              0              0              0              0              0              0              0              0              0              0              0              0              0              0              0              0              0              0              0              0              0              0              0              0              0              0              0              0              0              0              0              0
              0              0              0              0              0              0              0              0              0              0              0              0              0              0              0              0              0              0              0              0              0              0              0              0              0              0              0              0              0              0              0              0              0              0              0              0              0              0              0              0              0              0              0              0              0              0              0              0              0              0              0              0              0              0              0              0              0              0              0              0              0              0              0              0              0              0              0              0              0              0              0              0              0              0              0              0              0              0              0              0              0              0              0              0              0              0              0              0              0              0              0              0              0              0              0              0              0              0              0

              0              0              0              0              0              0              0              0              0              0              0              0              0              0              0              0              0              0              0              0              0              0              0              0              0              0              0              0              0              0              0              0              0              0              0              0              0              0              0              0              0              0              0              0              0              0              0              0              0              0              0              0              0              0              0              0              0              0              0              0              0              0              0              0              0              0              0              0              0              0              0              0              0              0              0              0              0              0              0              0              0              0              0              0              0              0              0              0              0              0              0              0              0              0              0              0              0              0              0              0              0
              0              0              0              0              0              0              0              0              0              0              0              0              0              0              0              0              0              0              0              0              0              0              0              0              0              0              0              0              0              0              0              0              0              0              0              0              0              0              0              0              0              0              0              0              0              0              0              0              0              0              0              0              0              0              0              0              0              0              0              0              0              0              0              0              0              0              0              0              0              0              0              0              0              0              0              0              0              0              0              0              0              0              0              0              0              0              0              0              0              0              0              0              0              0              0              0              0              0              0              0
              0              0              0              0              0              0              0              0              0              0              0              0              0              0              0              0              0              0              0              0              0              0              0              0              0              0              0              0              0              0              0              0              0              0              0              0              0              0              0              0              0              0              0              0              0              0              0              0              0              0              0              0              0              0              0              0              0              0              0              0              0              0              0              0              0              0              0              0              0              0              0              0              0              0              0              0              0              0              0              0              0              0              0              0              0              0              0              0              0              0              0              0              0              0              0              0              0              0              0              0
              0              0              0              0              0              0              0              0              0              0              0              0              0              0              0              0              0              0              0              0              0              0              0              0              0              0              0              0              0              0              0              0              0              0              0              0              0              0              0              0              0              0              0              0              0              0              0              0              0              0              0              0              0              0              0              0              0              0              0              0              0              0              0              0              0              0              0              0              0              0              0              0              0              0              0              0              0              0              0              0              0              0              0              0              0              0              0              0              0              0              0              0              0              0              0              0              0              0              0

          0.00020337         0.000213798         0.000224759
         0.000236283         0.000248397         0.000261133
         0.000274521         0.000288596         0.000303393
         0.000318948         0.000335301         0.000352492
         0.000370564         0.000389564         0.000409537
         0.000430534         0.000452608         0.000475813
         0.000500209         0.000525854         0.000552815
         0.000581158         0.000610955         0.000642278
         0.000675208         0.000709826         0.000746219
         0.000784477         0.000824697         0.000866979
         0.000911429         0.000958157          0.00100728
          0.00105892          0.00111321          0.00117028
          0.00123028          0.00129336          0.00135966
          0.00142937          0.00150265          0.00157968
          0.00166067           0.0017458           0.0018353
          0.00192938          0.00202829          0.00213226
          0.00224156          0.00235647          0.00247726
          0.00260423          0.00273772          0.00287804
          0.00302554           0.0031806          0.00334361
          0.00351495          0.00369507          0.00388441
          0.00408344          0.00429265          0.00451256
          0.00474372           0.0049867           0.0052421
          0.00551055          0.00579271          0.00608927
          0.00640097          0.00672858          0.00707288
          0.00743473            0.007815          0.00821462
          0.00863456          0.00907583          0.00953949
           0.0100267           0.0105385           0.0110762
           0.0116411           0.0122344           0.0128576
           0.0135121           0.0141994            0.014921
           0.0156786           0.0164738           0.0173085
           0.0181843           0.0191032            0.020067
           0.0210778           0.0221375           0.0232482
           0.0244119           0.0256309           0.0269071
           0.0282428             0.02964           0.0311008
           0.0326273           0.0342214           0.0358849
           0.0376196           0.0394268            0.041308
            0.043264           0.0452956           0.0474031
           0.0495862           0.0518441           0.0541756
           0.0565786             0.05905           0.0615863
           0.0641824           0.0668326           0.0695298
           0.0722655             0.07503           0.0778121
           0.0805992           0.0833771           0.0861303
           0.0888418           0.0914934           0.0940656
           0.0965383           0.0988905            0.101101
            0.103149            0.105014            0.106675
            0.108115            0.109318            0.110269
            0.110956            0.111372            0.111512
            0.111372            0.110956            0.110269
            0.109318            0.108115            0.106675
            0.105014            0.103149            0.101101
           0.0988905           0.0965383           0.0940656
           0.0914934           0.0888418           0.0861304
           0.0833771           0.0805992           0.0778122
             0.07503           0.0722655           0.0695298
           0.0668327           0.0641825           0.0615863
           0.0590501           0.0565786           0.0541757
           0.0518442           0.0495862           0.0474031
           0.0452957           0.0432641            0.041308
           0.0394268           0.0376196            0.035885
           0.0342215           0.0326274           0.0311009
           0.0296401           0.0282428           0.0269072
           0.0256309            0.024412           0.0232482
           0.0221375           0.0210779           0.0200671
           0.0191033           0.0181844           0.0173085
           0.0164739           0.0156786            0.014921
           0.0141994           0.0135121           0.0128576
           0.0122344           0.0116411           0.0110762
           0.0105385           0.0100266          0.00953948
          0.00907581          0.00863453          0.00821458
          0.00781496          0.00743469          0.00707284
          0.00672853          0.00640093          0.00608922
          0.00579265          0.00551049          0.00524205
          0.00498664          0.00474366          0.00451249
           0.0042926          0.00408339          0.00388436
          0.00369502           0.0035149          0.00334355
          0.00318055           0.0030255          0.00287799
          0.00273767          0.00260419          0.00247721
          0.00235642          0.00224153          0.00213222
          0.00202825          0.00192934          0.00183526
          0.00174577          0.00166064          0.00157965
          0.00150262          0.00142934          0.00135964
          0.00129333          0.00123026          0.00117026
          0.00111319           0.0010589          0.00100726
         0.000958138         0.000911412         0.000866958
         0.000824682          0.00078446         0.000746204
         0.000709807         0.000675192         0.000642263
         0.000610938         0.000581147         0.000552803
         0.000525844         0.000500201         0.000475801
           0.0004526         0.000430527          0.00040953
         0.000389555         0.000370558         0.000352484
         0.000335295         0.000318941         0.000303385
          0.00028859         0.000274516         0.000261127
         0.000248392         0.000236278         0.000224754
         0.000213793         0.000203366         0.000193448
         0.000184013         0.000175039         0.000166503
         0.000158382         0.000150657         0.000143309
         0.000136321         0.000129672         0.000123348
         0.000117332          0.00011161         0.000106167
         0.000100989         9.60637e-05         9.13788e-05
         8.69216e-05         8.26824e-05         7.86499e-05
         7.48138e-05         7.11653e-05         6.76948e-05
         6.43932e-05         6.12531e-05         5.82656e-05
         5.54241e-05          5.2721e-05         5.01497e-05
         4.77038e-05         4.53768e-05         4.31641e-05
          4.1059e-05         3.90567e-05         3.71513e-05
         3.53399e-05         3.36164e-05         3.19765e-05
         3.04174e-05         2.89338e-05         2.75226e-05
         2.61803e-05         2.49036e-05         2.36889e-05
         2.25336e-05         2.14347e-05         2.03893e-05
         1.93949e-05          1.8449e-05         1.75492e-05
         1.66933e-05         1.58792e-05         1.51048e-05
         1.43681e-05         1.36674e-05         1.30007e-05
         1.23667e-05         1.17636e-05         1.11899e-05
         1.06442e-05          1.0125e-05         9.63126e-06
         9.16143e-06          8.7147e-06         8.28967e-06
         7.88537e-06         7.50085e-06         7.13497e-06
         6.78698e-06         6.45603e-06         6.14109e-06
         5.84165e-06         5.55674e-06         5.28572e-06
         5.02794e-06         4.78275e-06         4.54945e-06
         4.32759e-06         4.11648e-06         3.91574e-06
          3.7248e-06         3.54313e-06         3.37033e-06
         3.20593e-06          3.0496e-06         2.90086e-06
         2.75939e-06         2.62481e-06          2.4968e-06
         2.37503e-06          2.2592e-06         2.14902e-06
          2.0442e-06         1.94451e-06         1.84968e-06
         1.75946e-06         1.67366e-06         1.59202e-06
         1.51438e-06         1.44052e-06         1.37027e-06
         1.30344e-06         1.23988e-06         1.17941e-06
         1.12188e-06         1.06717e-06         1.01512e-06
         9.65618e-07         9.18518e-07         8.73728e-07
         8.31111e-07         7.90579e-07         7.52021e-07
         7.15348e-07         6.80453e-07         6.47271e-07
           6.157e-07         5.85673e-07         5.57112e-07
         5.29939e-07          0.00019913          0.00020934
         0.000220073         0.000231356         0.000243218
         0.000255688         0.000268797         0.000282579
         0.000297067         0.000312298         0.000328309
         0.000345142         0.000362838         0.000381441
         0.000400997         0.000421557          0.00044317
         0.000465892         0.000489779          0.00051489
         0.000541288         0.000569041         0.000598215
         0.000628886         0.000661129         0.000695025
         0.000730659          0.00076812         0.000807501
         0.000848902         0.000892424         0.000938178
         0.000986278          0.00103684             0.00109
          0.00114588          0.00120463          0.00126639
          0.00133131          0.00139957          0.00147132
          0.00154675          0.00162604           0.0017094
          0.00179703          0.00188915            0.001986
           0.0020878          0.00219482          0.00230733
           0.0024256          0.00254993          0.00268063
          0.00281803          0.00296246          0.00311429
          0.00327389          0.00344166          0.00361803
          0.00380342          0.00399829          0.00420314
          0.00441847          0.00464481          0.00488272
          0.00513279          0.00539564          0.00567192
           0.0059623           0.0062675          0.00658828
           0.0069254           0.0072797          0.00765205
          0.00804333          0.00845452          0.00888659
          0.00934058          0.00981759           0.0103188
           0.0108453           0.0113983           0.0119793
           0.0125895           0.0132303           0.0139033
           0.0146099           0.0153517           0.0161303
           0.0169476           0.0178052           0.0187049
           0.0196486           0.0206383           0.0216759
           0.0227634           0.0239029           0.0250964
           0.0263461           0.0276539            0.029022
           0.0304524            0.031947           0.0335079
           0.0351367           0.0368352           0.0386047
           0.0404467           0.0423619           0.0443512
           0.0464147           0.0485522           0.0507631
            0.053046           0.0553988           0.0578188
           0.0603021           0.0628441           0.0654391
             0.06808           0.0707587           0.0734655
           0.0761896           0.0789186           0.0816386
           0.0843344           0.0869894           0.0895856
           0.0921042           0.0945253           0.0968285
            0.098993            0.100998            0.102824
            0.104451            0.105861            0.107038
            0.107969            0.108643             0.10905
            0.109186             0.10905            0.108643
            0.107969            0.107038            0.105861
            0.104451            0.102824            0.100998
            0.098993           0.0968285           0.0945253
           0.0921042           0.0895856           0.0869893
           0.0843344           0.0816386           0.0789186
           0.0761897           0.0734655           0.0707587
           0.0680801           0.0654391           0.0628442
           0.0603021           0.0578188           0.0553989
            0.053046           0.0507632           0.0485523
           0.0464147           0.0443512            0.042362
           0.0404467           0.0386048           0.0368352
           0.0351368           0.0335079           0.0319471
           0.0304524            0.029022           0.0276539