title = "SUGAR TECPLOT"
variables = "X", "Y", "Z", "Var"
 zone T = "Mesh", I= 400, J=1, K=1, DATAPACKING=BLOCK
 VARLOCATION = ([4] = CELLCENTERED)

              0           0.05            0.1           0.15            0.2           0.25            0.3           0.35            0.4           0.45            0.5           0.55            0.6           0.65            0.7           0.75            0.8           0.85            0.9           0.95              1           1.05            1.1           1.15            1.2           1.25            1.3           1.35            1.4           1.45            1.5           1.55            1.6           1.65            1.7           1.75            1.8           1.85            1.9           1.95              2           2.05            2.1           2.15            2.2           2.25            2.3           2.35            2.4           2.45            2.5           2.55            2.6           2.65            2.7           2.75            2.8           2.85            2.9           2.95              3           3.05            3.1           3.15            3.2           3.25            3.3           3.35            3.4           3.45            3.5           3.55            3.6           3.65            3.7           3.75            3.8           3.85            3.9           3.95              4           4.05            4.1           4.15            4.2           4.25            4.3           4.35            4.4           4.45            4.5           4.55            4.6           4.65            4.7           4.75            4.8           4.85            4.9           4.95              5
           5.05            5.1           5.15            5.2           5.25            5.3           5.35            5.4           5.45            5.5           5.55            5.6           5.65            5.7           5.75            5.8           5.85            5.9           5.95              6           6.05            6.1           6.15            6.2           6.25            6.3           6.35            6.4           6.45            6.5           6.55            6.6           6.65            6.7           6.75            6.8           6.85            6.9           6.95              7           7.05            7.1           7.15            7.2           7.25            7.3           7.35            7.4           7.45            7.5           7.55            7.6           7.65            7.7           7.75            7.8           7.85            7.9           7.95              8           8.05            8.1           8.15            8.2           8.25            8.3           8.35            8.4           8.45            8.5           8.55            8.6           8.65            8.7           8.75            8.8           8.85            8.9           8.95              9           9.05            9.1           9.15            9.2           9.25            9.3           9.35            9.4           9.45            9.5           9.55            9.6           9.65            9.7           9.75            9.8           9.85            9.9           9.95             10
          10.05           10.1          10.15           10.2          10.25           10.3          10.35           10.4          10.45           10.5          10.55           10.6          10.65           10.7          10.75           10.8          10.85           10.9          10.95             11          11.05           11.1          11.15           11.2          11.25           11.3          11.35           11.4          11.45           11.5          11.55           11.6          11.65           11.7          11.75           11.8          11.85           11.9          11.95             12          12.05           12.1          12.15           12.2          12.25           12.3          12.35           12.4          12.45           12.5          12.55           12.6          12.65           12.7          12.75           12.8          12.85           12.9          12.95             13          13.05           13.1          13.15           13.2          13.25           13.3          13.35           13.4          13.45           13.5          13.55           13.6          13.65           13.7          13.75           13.8          13.85           13.9          13.95             14          14.05           14.1          14.15           14.2          14.25           14.3          14.35           14.4          14.45           14.5          14.55           14.6          14.65           14.7          14.75           14.8          14.85           14.9          14.95             15
          15.05           15.1          15.15           15.2          15.25           15.3          15.35           15.4          15.45           15.5          15.55           15.6          15.65           15.7          15.75           15.8          15.85           15.9          15.95             16          16.05           16.1          16.15           16.2          16.25           16.3          16.35           16.4          16.45           16.5          16.55           16.6          16.65           16.7          16.75           16.8          16.85           16.9          16.95             17          17.05           17.1          17.15           17.2          17.25           17.3          17.35           17.4          17.45           17.5          17.55           17.6          17.65           17.7          17.75           17.8          17.85           17.9          17.95             18          18.05           18.1          18.15           18.2          18.25           18.3          18.35           18.4          18.45           18.5          18.55           18.6          18.65           18.7          18.75           18.8          18.85           18.9          18.95             19          19.05           19.1          19.15           19.2          19.25           19.3          19.35           19.4          19.45           19.5          19.55           19.6          19.65           19.7          19.75           19.8          19.85           19.9          19.95

              0              0              0              0              0              0              0              0              0              0              0              0              0              0              0              0              0              0              0              0              0              0              0              0              0              0              0              0              0              0              0              0              0              0              0              0              0              0              0              0              0              0              0              0              0              0              0              0              0              0              0              0              0              0              0              0              0              0              0              0              0              0              0              0              0              0              0              0              0              0              0              0              0              0              0              0              0              0              0              0              0              0              0              0              0              0              0              0              0              0              0              0              0              0              0              0              0              0              0              0              0
              0              0              0              0              0              0              0              0              0              0              0              0              0              0              0              0              0              0              0              0              0              0              0              0              0              0              0              0              0              0              0              0              0              0              0              0              0              0              0              0              0              0              0              0              0              0              0              0              0              0              0              0              0              0              0              0              0              0              0              0              0              0              0              0              0              0              0              0              0              0              0              0              0              0              0              0              0              0              0              0              0              0              0              0              0              0              0              0              0              0              0              0              0              0              0              0              0              0              0              0
              0              0              0              0              0              0              0              0              0              0              0              0              0              0              0              0              0              0              0              0              0              0              0              0              0              0              0              0              0              0              0              0              0              0              0              0              0              0              0              0              0              0              0              0              0              0              0              0              0              0              0              0              0              0              0              0              0              0              0              0              0              0              0              0              0              0              0              0              0              0              0              0              0              0              0              0              0              0              0              0              0              0              0              0              0              0              0              0              0              0              0              0              0              0              0              0              0              0              0              0
              0              0              0              0              0              0              0              0              0              0              0              0              0              0              0              0              0              0              0              0              0              0              0              0              0              0              0              0              0              0              0              0              0              0              0              0              0              0              0              0              0              0              0              0              0              0              0              0              0              0              0              0              0              0              0              0              0              0              0              0              0              0              0              0              0              0              0              0              0              0              0              0              0              0              0              0              0              0              0              0              0              0              0              0              0              0              0              0              0              0              0              0              0              0              0              0              0              0              0

              0              0              0              0              0              0              0              0              0              0              0              0              0              0              0              0              0              0              0              0              0              0              0              0              0              0              0              0              0              0              0              0              0              0              0              0              0              0              0              0              0              0              0              0              0              0              0              0              0              0              0              0              0              0              0              0              0              0              0              0              0              0              0              0              0              0              0              0              0              0              0              0              0              0              0              0              0              0              0              0              0              0              0              0              0              0              0              0              0              0              0              0              0              0              0              0              0              0              0              0              0
              0              0              0              0              0              0              0              0              0              0              0              0              0              0              0              0              0              0              0              0              0              0              0              0              0              0              0              0              0              0              0              0              0              0              0              0              0              0              0              0              0              0              0              0              0              0              0              0              0              0              0              0              0              0              0              0              0              0              0              0              0              0              0              0              0              0              0              0              0              0              0              0              0              0              0              0              0              0              0              0              0              0              0              0              0              0              0              0              0              0              0              0              0              0              0              0              0              0              0              0
              0              0              0              0              0              0              0              0              0              0              0              0              0              0              0              0              0              0              0              0              0              0              0              0              0              0              0              0              0              0              0              0              0              0              0              0              0              0              0              0              0              0              0              0              0              0              0              0              0              0              0              0              0              0              0              0              0              0              0              0              0              0              0              0              0              0              0              0              0              0              0              0              0              0              0              0              0              0              0              0              0              0              0              0              0              0              0              0              0              0              0              0              0              0              0              0              0              0              0              0
              0              0              0              0              0              0              0              0              0              0              0              0              0              0              0              0              0              0              0              0              0              0              0              0              0              0              0              0              0              0              0              0              0              0              0              0              0              0              0              0              0              0              0              0              0              0              0              0              0              0              0              0              0              0              0              0              0              0              0              0              0              0              0              0              0              0              0              0              0              0              0              0              0              0              0              0              0              0              0              0              0              0              0              0              0              0              0              0              0              0              0              0              0              0              0              0              0              0              0

         0.000103543         0.000108852         0.000114432
           0.0001203         0.000126467         0.000132951
         0.000139768         0.000146934         0.000154468
         0.000162387         0.000170713         0.000179466
         0.000188667          0.00019834         0.000208509
           0.0002192         0.000230438         0.000242253
         0.000254673          0.00026773         0.000281457
         0.000295888         0.000311058         0.000327006
         0.000343772         0.000361397         0.000379926
         0.000399405         0.000419882         0.000441409
          0.00046404         0.000487831         0.000512842
         0.000539135         0.000566776         0.000595833
         0.000626381         0.000658495         0.000692254
         0.000727744         0.000765054         0.000804275
         0.000845507         0.000888853          0.00093442
         0.000982323          0.00103268          0.00108562
          0.00114127          0.00119977          0.00126127
          0.00132593          0.00139389          0.00146534
          0.00154044           0.0016194          0.00170239
          0.00178964          0.00188135          0.00197776
           0.0020791          0.00218564          0.00229762
          0.00241533          0.00253906          0.00266912
          0.00280582          0.00294952          0.00310055
          0.00325929          0.00342614           0.0036015
          0.00378581           0.0039795          0.00418306
          0.00439699          0.00462179          0.00485801
          0.00510623          0.00536703          0.00564105
          0.00592893          0.00623135          0.00654902
          0.00688269          0.00723313          0.00760115
          0.00798757          0.00839328          0.00881917
          0.00926619          0.00973531           0.0102275
           0.0107439           0.0112854           0.0118532
           0.0124484           0.0130721           0.0137255
           0.0144097           0.0151259           0.0158753
            0.016659           0.0174781           0.0183338
            0.019227           0.0201588           0.0211301
           0.0221415           0.0231938           0.0242875
           0.0254229              0.0266           0.0278186
           0.0290784           0.0303785           0.0317177
           0.0330944           0.0345066           0.0359516
           0.0374264           0.0389272           0.0404498
           0.0419893           0.0435401           0.0450961
           0.0466505            0.048196           0.0497251
           0.0512296           0.0527012           0.0541315
           0.0555121           0.0568351           0.0580928
           0.0592784           0.0603857           0.0614097
           0.0623467           0.0631944           0.0639518
           0.0646197           0.0652002           0.0656972
            0.066116           0.0664632           0.0667466
           0.0669751           0.0671583           0.0673067
           0.0674308           0.0675415           0.0676497
           0.0677658              0.0679            0.068062
           0.0682606           0.0685039           0.0687989
           0.0691519           0.0695678           0.0700504
           0.0706023           0.0712248           0.0719176
           0.0726791           0.0735061           0.0743937
           0.0753351           0.0763216           0.0773426
           0.0783851           0.0794339           0.0804713
           0.0814771           0.0824284           0.0832996
           0.0840622           0.0846854           0.0851357
           0.0853773           0.0853726           0.0850826
           0.0844676           0.0834881           0.0821057
           0.0802842            0.077991           0.0751986
           0.0718858           0.0680393           0.0636554
           0.0587405           0.0533125           0.0474016
           0.0410497           0.0343109           0.0272501
           0.0199417           0.0124677          0.00491562
         -0.00262442          -0.0100622          -0.0173103
          -0.0242864           -0.030916           -0.037134
          -0.0428861          -0.0481299           -0.052835
           -0.056983           -0.060567          -0.0635904
          -0.0660659           -0.068014          -0.0694617
           -0.070441          -0.0709874          -0.0711385
          -0.0709334          -0.0704108          -0.0696092
          -0.0685655          -0.0673148          -0.0658899
          -0.0643213          -0.0626368          -0.0608616
          -0.0590183          -0.0571271          -0.0552057
          -0.0532695          -0.0513318          -0.0494043
          -0.0474964          -0.0456164          -0.0437711
          -0.0419658           -0.040205           -0.038492
          -0.0368295          -0.0352192          -0.0336625
            -0.03216          -0.0307118           -0.029318
           -0.027978          -0.0266911          -0.0254563
          -0.0242726          -0.0231387          -0.0220533
          -0.0210148          -0.0200219           -0.019073
          -0.0181666          -0.0173011           -0.016475
          -0.0156867          -0.0149348          -0.0142177
           -0.013534          -0.0128823          -0.0122613
          -0.0116695          -0.0111057          -0.0105687
          -0.0100572         -0.00957016         -0.00910636
         -0.00866477         -0.00824437         -0.00784417
         -0.00746322         -0.00710062         -0.00675552
         -0.00642708         -0.00611452         -0.00581707
         -0.00553403          -0.0052647         -0.00500843
         -0.00476458         -0.00453257         -0.00431183
          -0.0041018         -0.00390199         -0.00371188
         -0.00353102         -0.00335896         -0.00319527
         -0.00303954          -0.0028914         -0.00275046
         -0.00261639         -0.00248885         -0.00236751
         -0.00225209          -0.0021423         -0.00203785
         -0.00193849         -0.00184397         -0.00175406
         -0.00166853         -0.00158717         -0.00150978
         -0.00143616         -0.00136613         -0.00129951
         -0.00123614         -0.00117586         -0.00111851
         -0.00106397         -0.00101208        -0.000962726
        -0.000915776        -0.000871116        -0.000828633
        -0.000788222        -0.000749782        -0.000713216
        -0.000678433        -0.000645347        -0.000613874
        -0.000583935        -0.000555457        -0.000528368
        -0.000502599        -0.000478088        -0.000454772
        -0.000432592        -0.000411495        -0.000391426
        -0.000372336        -0.000354178        -0.000336904
        -0.000320473        -0.000304844        -0.000289976
        -0.000275834        -0.000262382        -0.000249585
        -0.000237413        -0.000225834         -0.00021482
        -0.000204343        -0.000194377        -0.000184897
         -0.00017588        -0.000167302        -0.000159143
        -0.000151381        -0.000143998        -0.000136976
        -0.000130295        -0.000123941        -0.000117896
        -0.000112146        -0.000106677        -0.000101474
         -9.6525e-05        -9.18175e-05        -8.73395e-05
        -8.30799e-05        -7.90281e-05        -7.51738e-05
        -7.15075e-05        -6.80201e-05        -6.47027e-05
        -6.15471e-05        -5.85454e-05        -5.56901e-05
        -5.29741e-05        -5.03905e-05        -4.79329e-05
        -4.55952e-05        -4.33715e-05        -4.12563e-05
        -3.92442e-05        -3.73302e-05        -3.55096e-05
        -3.37778e-05        -3.21304e-05        -3.05634e-05
        -2.90728e-05        -2.76549e-05        -2.63062e-05
        -2.50232e-05        -2.38028e-05        -2.26419e-05
        -2.15377e-05        -2.04873e-05        -1.94881e-05
        -1.85376e-05        -1.76335e-05        -1.67735e-05
        -1.59555e-05        -1.51773e-05        -1.44371e-05
         -1.3733e-05         0.000103542         0.000108851
         0.000114432         0.000120299         0.000126467
         0.000132951         0.000139767         0.000146934
         0.000154467         0.000162387         0.000170712
         0.000179465         0.000188666         0.000198339
         0.000208508         0.000219199         0.000230437
         0.000242252         0.000254672         0.000267729
         0.000281456         0.000295886         0.000311057
         0.000327005          0.00034377         0.000361395
         0.000379924         0.000399403          0.00041988
         0.000441408         0.000464038         0.000487829
          0.00051284         0.000539133         0.000566774
         0.000595831         0.000626379         0.000658492
         0.000692252         0.000727741         0.000765051
         0.000804272         0.000845504          0.00088885
         0.000934417          0.00098232          0.00103268
          0.00108561          0.00114127          0.00119977
          0.00126127          0.00132592          0.00139388
          0.00146533          0.00154044          0.00161939
          0.00170239          0.00178963          0.00188134
          0.00197775           0.0020791          0.00218563
          0.00229761          0.00241532          0.00253905
          0.00266911          0.00280581           0.0029495
          0.00310054          0.00325928          0.00342613
          0.00360149          0.00378579          0.00397949
          0.00418305          0.00439697          0.00462177
          0.00485799          0.00510621          0.00536701
          0.00564103           0.0059289          0.00623133
          0.00654899          0.00688266           0.0072331
          0.00760112          0.00798754          0.00839324
          0.00881914          0.00926616          0.00973527
           0.0102275           0.0107438           0.0112853
           0.0118531           0.0124483            0.013072
           0.0137254           0.0144096           0.0151259
           0.0158752           0.0166589           0.0174781
           0.0183337            0.019227           0.0201588
             0.02113           0.0221414           0.0231937
           0.0242874           0.0254228           0.0265999
           0.0278185           0.0290783           0.0303784
           0.0317176           0.0330943           0.0345064
           0.0359515           0.0374262           0.0389271
           0.0404497           0.0419892           0.0435399
           0.0450959           0.0466503           0.0481959
           0.0497249           0.0512294            0.052701
           0.0541313           0.0555119           0.0568349
           0.0580926           0.0592782           0.0603855
           0.0614095           0.0623465           0.0631942
           0.0639516           0.0646195              0.0652
           0.0656971           0.0661158            0.066463
           0.0667464           0.0669749           0.0671582
           0.0673065           0.0674307           0.0675414
           0.0676495           0.0677657           0.0678999
           0.0680619           0.0682605           0.0685038
           0.0687989           0.0691518           0.0695678
           0.0700504           0.0706023           0.0712248
           0.0719176           0.0726791           0.0735062
           0.0743937           0.0753351           0.0763217
           0.0773427           0.0783852            0.079434
           0.0804714           0.0814772           0.0824286
           0.0832997           0.0840624           0.0846856
           0.0851358           0.0853775           0.0853728