title = "SUGAR TECPLOT"
variables = "X", "Y", "Z", "Var"
 zone T = "Mesh", I= 400, J=1, K=1, DATAPACKING=BLOCK
 VARLOCATION = ([4] = CELLCENTERED)

              0           0.05            0.1           0.15            0.2           0.25            0.3           0.35            0.4           0.45            0.5           0.55            0.6           0.65            0.7           0.75            0.8           0.85            0.9           0.95              1           1.05            1.1           1.15            1.2           1.25            1.3           1.35            1.4           1.45            1.5           1.55            1.6           1.65            1.7           1.75            1.8           1.85            1.9           1.95              2           2.05            2.1           2.15            2.2           2.25            2.3           2.35            2.4           2.45            2.5           2.55            2.6           2.65            2.7           2.75            2.8           2.85            2.9           2.95              3           3.05            3.1           3.15            3.2           3.25            3.3           3.35            3.4           3.45            3.5           3.55            3.6           3.65            3.7           3.75            3.8           3.85            3.9           3.95              4           4.05            4.1           4.15            4.2           4.25            4.3           4.35            4.4           4.45            4.5           4.55            4.6           4.65            4.7           4.75            4.8           4.85            4.9           4.95              5
           5.05            5.1           5.15            5.2           5.25            5.3           5.35            5.4           5.45            5.5           5.55            5.6           5.65            5.7           5.75            5.8           5.85            5.9           5.95              6           6.05            6.1           6.15            6.2           6.25            6.3           6.35            6.4           6.45            6.5           6.55            6.6           6.65            6.7           6.75            6.8           6.85            6.9           6.95              7           7.05            7.1           7.15            7.2           7.25            7.3           7.35            7.4           7.45            7.5           7.55            7.6           7.65            7.7           7.75            7.8           7.85            7.9           7.95              8           8.05            8.1           8.15            8.2           8.25            8.3           8.35            8.4           8.45            8.5           8.55            8.6           8.65            8.7           8.75            8.8           8.85            8.9           8.95              9           9.05            9.1           9.15            9.2           9.25            9.3           9.35            9.4           9.45            9.5           9.55            9.6           9.65            9.7           9.75            9.8           9.85            9.9           9.95             10
          10.05           10.1          10.15           10.2          10.25           10.3          10.35           10.4          10.45           10.5          10.55           10.6          10.65           10.7          10.75           10.8          10.85           10.9          10.95             11          11.05           11.1          11.15           11.2          11.25           11.3          11.35           11.4          11.45           11.5          11.55           11.6          11.65           11.7          11.75           11.8          11.85           11.9          11.95             12          12.05           12.1          12.15           12.2          12.25           12.3          12.35           12.4          12.45           12.5          12.55           12.6          12.65           12.7          12.75           12.8          12.85           12.9          12.95             13          13.05           13.1          13.15           13.2          13.25           13.3          13.35           13.4          13.45           13.5          13.55           13.6          13.65           13.7          13.75           13.8          13.85           13.9          13.95             14          14.05           14.1          14.15           14.2          14.25           14.3          14.35           14.4          14.45           14.5          14.55           14.6          14.65           14.7          14.75           14.8          14.85           14.9          14.95             15
          15.05           15.1          15.15           15.2          15.25           15.3          15.35           15.4          15.45           15.5          15.55           15.6          15.65           15.7          15.75           15.8          15.85           15.9          15.95             16          16.05           16.1          16.15           16.2          16.25           16.3          16.35           16.4          16.45           16.5          16.55           16.6          16.65           16.7          16.75           16.8          16.85           16.9          16.95             17          17.05           17.1          17.15           17.2          17.25           17.3          17.35           17.4          17.45           17.5          17.55           17.6          17.65           17.7          17.75           17.8          17.85           17.9          17.95             18          18.05           18.1          18.15           18.2          18.25           18.3          18.35           18.4          18.45           18.5          18.55           18.6          18.65           18.7          18.75           18.8          18.85           18.9          18.95             19          19.05           19.1          19.15           19.2          19.25           19.3          19.35           19.4          19.45           19.5          19.55           19.6          19.65           19.7          19.75           19.8          19.85           19.9          19.95

              0              0              0              0              0              0              0              0              0              0              0              0              0              0              0              0              0              0              0              0              0              0              0              0              0              0              0              0              0              0              0              0              0              0              0              0              0              0              0              0              0              0              0              0              0              0              0              0              0              0              0              0              0              0              0              0              0              0              0              0              0              0              0              0              0              0              0              0              0              0              0              0              0              0              0              0              0              0              0              0              0              0              0              0              0              0              0              0              0              0              0              0              0              0              0              0              0              0              0              0              0
              0              0              0              0              0              0              0              0              0              0              0              0              0              0              0              0              0              0              0              0              0              0              0              0              0              0              0              0              0              0              0              0              0              0              0              0              0              0              0              0              0              0              0              0              0              0              0              0              0              0              0              0              0              0              0              0              0              0              0              0              0              0              0              0              0              0              0              0              0              0              0              0              0              0              0              0              0              0              0              0              0              0              0              0              0              0              0              0              0              0              0              0              0              0              0              0              0              0              0              0
              0              0              0              0              0              0              0              0              0              0              0              0              0              0              0              0              0              0              0              0              0              0              0              0              0              0              0              0              0              0              0              0              0              0              0              0              0              0              0              0              0              0              0              0              0              0              0              0              0              0              0              0              0              0              0              0              0              0              0              0              0              0              0              0              0              0              0              0              0              0              0              0              0              0              0              0              0              0              0              0              0              0              0              0              0              0              0              0              0              0              0              0              0              0              0              0              0              0              0              0
              0              0              0              0              0              0              0              0              0              0              0              0              0              0              0              0              0              0              0              0              0              0              0              0              0              0              0              0              0              0              0              0              0              0              0              0              0              0              0              0              0              0              0              0              0              0              0              0              0              0              0              0              0              0              0              0              0              0              0              0              0              0              0              0              0              0              0              0              0              0              0              0              0              0              0              0              0              0              0              0              0              0              0              0              0              0              0              0              0              0              0              0              0              0              0              0              0              0              0

              0              0              0              0              0              0              0              0              0              0              0              0              0              0              0              0              0              0              0              0              0              0              0              0              0              0              0              0              0              0              0              0              0              0              0              0              0              0              0              0              0              0              0              0              0              0              0              0              0              0              0              0              0              0              0              0              0              0              0              0              0              0              0              0              0              0              0              0              0              0              0              0              0              0              0              0              0              0              0              0              0              0              0              0              0              0              0              0              0              0              0              0              0              0              0              0              0              0              0              0              0
              0              0              0              0              0              0              0              0              0              0              0              0              0              0              0              0              0              0              0              0              0              0              0              0              0              0              0              0              0              0              0              0              0              0              0              0              0              0              0              0              0              0              0              0              0              0              0              0              0              0              0              0              0              0              0              0              0              0              0              0              0              0              0              0              0              0              0              0              0              0              0              0              0              0              0              0              0              0              0              0              0              0              0              0              0              0              0              0              0              0              0              0              0              0              0              0              0              0              0              0
              0              0              0              0              0              0              0              0              0              0              0              0              0              0              0              0              0              0              0              0              0              0              0              0              0              0              0              0              0              0              0              0              0              0              0              0              0              0              0              0              0              0              0              0              0              0              0              0              0              0              0              0              0              0              0              0              0              0              0              0              0              0              0              0              0              0              0              0              0              0              0              0              0              0              0              0              0              0              0              0              0              0              0              0              0              0              0              0              0              0              0              0              0              0              0              0              0              0              0              0
              0              0              0              0              0              0              0              0              0              0              0              0              0              0              0              0              0              0              0              0              0              0              0              0              0              0              0              0              0              0              0              0              0              0              0              0              0              0              0              0              0              0              0              0              0              0              0              0              0              0              0              0              0              0              0              0              0              0              0              0              0              0              0              0              0              0              0              0              0              0              0              0              0              0              0              0              0              0              0              0              0              0              0              0              0              0              0              0              0              0              0              0              0              0              0              0              0              0              0

         7.08311e-05         7.44629e-05         7.82805e-05
         8.22942e-05         8.65135e-05          9.0949e-05
         9.56121e-05         0.000100514         0.000105667
         0.000111085         0.000116781         0.000122768
         0.000129062          0.00013568         0.000142636
         0.000149949         0.000157637         0.000165719
         0.000174216         0.000183148         0.000192538
          0.00020241         0.000212788         0.000223697
         0.000235166         0.000247223         0.000259899
         0.000273223         0.000287232         0.000301958
         0.000317439         0.000333714         0.000350824
          0.00036881         0.000387719         0.000407596
         0.000428491         0.000450462         0.000473553
         0.000497832         0.000523355         0.000550184
         0.000578391         0.000608046         0.000639218
         0.000671988         0.000706432         0.000742649
         0.000780728         0.000820744         0.000862817
          0.00090705         0.000953536          0.00100242
          0.00105379          0.00110781          0.00116458
          0.00122427          0.00128701          0.00135298
          0.00142231          0.00149519          0.00157181
          0.00165234          0.00173699          0.00182596
           0.0019195          0.00201781          0.00212115
          0.00222977          0.00234393          0.00246392
          0.00259003          0.00272258          0.00286187
          0.00300827          0.00316211          0.00332378
          0.00349367          0.00367218          0.00385975
          0.00405679          0.00426385          0.00448135
           0.0047098          0.00494976           0.0052018
          0.00546646          0.00574441          0.00603617
          0.00634254          0.00666401          0.00700146
          0.00735549          0.00772684          0.00811635
          0.00852477          0.00895292          0.00940152
           0.0098716           0.0103638           0.0108791
           0.0114182           0.0119821           0.0125716
           0.0131874           0.0138303            0.014501
           0.0152002           0.0159284           0.0166864
           0.0174743           0.0182924           0.0191409
           0.0200199           0.0209288           0.0218675
           0.0228351           0.0238306           0.0248529
           0.0259003           0.0269708           0.0280622
            0.029172            0.030297           0.0314338
           0.0325789           0.0337282           0.0348773
           0.0360218           0.0371573           0.0382789
           0.0393822           0.0404628           0.0415168
           0.0425403           0.0435305           0.0444846
           0.0454015           0.0462802           0.0471211
           0.0479252           0.0486946           0.0494328
           0.0501436           0.0508318           0.0515036
           0.0521648           0.0528222           0.0534835
           0.0541558           0.0548461           0.0555627
           0.0563122           0.0571016           0.0579372
           0.0588252           0.0597707            0.060778
            0.061851           0.0629924           0.0642039
           0.0654862           0.0668386           0.0682592
            0.069745           0.0712908             0.07289
           0.0745341            0.076213           0.0779135
           0.0796209           0.0813173           0.0829825
           0.0845934           0.0861237           0.0875439
           0.0888223           0.0899228           0.0908076
           0.0914359           0.0917648           0.0917498
           0.0913455           0.0905067           0.0891898
           0.0873535           0.0849607             0.08198
           0.0783875           0.0741684           0.0693188
           0.0638466           0.0577728           0.0511327
           0.0439751           0.0363628            0.028371
            0.020086           0.0116028          0.00302258
         -0.00555022          -0.0140112          -0.0222591
          -0.0301988           -0.037744          -0.0448193
          -0.0513617          -0.0573222          -0.0626654
          -0.0673701          -0.0714276          -0.0748422
           -0.077628          -0.0798087          -0.0814151
          -0.0824842          -0.0830566          -0.0831757
          -0.0828863          -0.0822333          -0.0812606
          -0.0800108          -0.0785243           -0.076839
          -0.0749897          -0.0730086          -0.0709247
           -0.068764          -0.0665495          -0.0643017
          -0.0620384          -0.0597748          -0.0575242
          -0.0552975          -0.0531044          -0.0509523
          -0.0488475           -0.046795          -0.0447989
          -0.0428618          -0.0409861          -0.0391728
           -0.037423          -0.0357368          -0.0341139
          -0.0325538          -0.0310557          -0.0296184
          -0.0282406          -0.0269209          -0.0256575
          -0.0244491          -0.0232936          -0.0221894
          -0.0211347          -0.0201276          -0.0191663
          -0.0182491          -0.0173742          -0.0165399
          -0.0157445          -0.0149863          -0.0142637
          -0.0135752          -0.0129194          -0.0122946
          -0.0116995          -0.0111329          -0.0105933
          -0.0100796         -0.00959057           -0.009125
         -0.00868182         -0.00826002         -0.00785856
         -0.00747648         -0.00711288         -0.00676686
         -0.00643759         -0.00612428         -0.00582615
          -0.0055425          -0.0052726         -0.00501582
          -0.0047715         -0.00453906         -0.00431792
         -0.00410752         -0.00390737         -0.00371695
          -0.0035358         -0.00336346         -0.00319952
         -0.00304355         -0.00289519         -0.00275405
         -0.00261978         -0.00249205         -0.00237055
         -0.00225498         -0.00214503         -0.00204043
         -0.00194094          -0.0018463         -0.00175627
         -0.00167063         -0.00158916         -0.00151167
         -0.00143796         -0.00136783         -0.00130113
         -0.00123767         -0.00117732          -0.0011199
         -0.00106529         -0.00101334        -0.000963918
         -0.00091691        -0.000872195        -0.000829658
        -0.000789197        -0.000750708        -0.000714096
        -0.000679271        -0.000646143        -0.000614631
        -0.000584656        -0.000556142        -0.000529019
        -0.000503219        -0.000478677        -0.000455332
        -0.000433126        -0.000412002        -0.000391908
        -0.000372795        -0.000354613        -0.000337319
        -0.000320867        -0.000305219        -0.000290333
        -0.000276174        -0.000262704        -0.000249892
        -0.000237705        -0.000226112        -0.000215085
        -0.000204594        -0.000194616        -0.000185125
        -0.000176096        -0.000167508        -0.000159339
        -0.000151568        -0.000144175        -0.000137144
        -0.000130455        -0.000124093        -0.000118041
        -0.000112284        -0.000106808        -0.000101599
        -9.66439e-05        -9.19305e-05        -8.74469e-05
        -8.31821e-05        -7.91252e-05        -7.52662e-05
        -7.15955e-05        -6.81037e-05        -6.47823e-05
        -6.16228e-05        -5.86174e-05        -5.57586e-05
        -5.30393e-05        -5.04525e-05        -4.79919e-05
        -4.56513e-05        -4.34249e-05         -4.1307e-05
        -3.92925e-05        -3.73761e-05        -3.55532e-05
        -3.38193e-05        -3.21699e-05         -3.0601e-05
        -2.91085e-05        -2.76889e-05        -2.63385e-05
         -2.5054e-05        -2.38321e-05        -2.26698e-05
        -2.15641e-05        -2.05125e-05         -1.9512e-05
        -1.85604e-05        -1.76552e-05        -1.67942e-05
        -1.59751e-05          -7.075e-05        -7.43772e-05
        -7.81907e-05        -8.21994e-05        -8.64139e-05
        -9.08445e-05        -9.55022e-05        -0.000100399
        -0.000105546        -0.000110958        -0.000116646
        -0.000122627        -0.000128915        -0.000135524
        -0.000142472        -0.000149777        -0.000157456
        -0.000165529        -0.000174016        -0.000182938
        -0.000192317        -0.000202178        -0.000212543
        -0.000223441        -0.000234897         -0.00024694
          -0.0002596         -0.00027291        -0.000286902
        -0.000301611        -0.000317075        -0.000333331
        -0.000350421        -0.000368387        -0.000387273
        -0.000407129        -0.000428004        -0.000449944
        -0.000473016        -0.000497266        -0.000522759
         -0.00054956        -0.000577734         -0.00060735
        -0.000638485        -0.000671217        -0.000705632
        -0.000741804        -0.000779822        -0.000819804
        -0.000861826        -0.000906001        -0.000952449
         -0.00100126         -0.00105259         -0.00110654
         -0.00116326         -0.00122288         -0.00128555
         -0.00135142         -0.00142067         -0.00149347
         -0.00156999         -0.00165044         -0.00173499
         -0.00182388          -0.0019173          -0.0020155
         -0.00211872         -0.00222721         -0.00234124
          -0.0024611         -0.00258706         -0.00271945
          -0.0028586         -0.00300482         -0.00315849
         -0.00331998         -0.00348966         -0.00366797
         -0.00385531         -0.00405218         -0.00425897
         -0.00447619         -0.00470442         -0.00494413
         -0.00519588         -0.00546026         -0.00573783
         -0.00602932         -0.00633523         -0.00665642
          -0.0069934         -0.00734701           -0.007718
         -0.00810706         -0.00851502         -0.00894265
         -0.00939088         -0.00986032          -0.0103521
          -0.0108667          -0.0114053          -0.0119685
          -0.0125572          -0.0131724          -0.0138145
          -0.0144845           -0.015183          -0.0159105
          -0.0166675          -0.0174546          -0.0182718
          -0.0191194          -0.0199973          -0.0209054
           -0.021843          -0.0228096          -0.0238041
          -0.0248253          -0.0258716          -0.0269412
          -0.0280316          -0.0291402          -0.0302641
             -0.0314           -0.032544          -0.0336922
          -0.0348405          -0.0359842          -0.0371188
          -0.0382397          -0.0393424          -0.0404225
          -0.0414758          -0.0424991          -0.0434888
           -0.044443          -0.0453598          -0.0462386
          -0.0470796           -0.047884           -0.048654
          -0.0493927          -0.0501042          -0.0507936
          -0.0514661          -0.0521286          -0.0527876
            -0.05345          -0.0541236          -0.0548159
          -0.0555338          -0.0562849          -0.0570759
          -0.0579135          -0.0588031          -0.0597503
          -0.0607596          -0.0618345          -0.0629778
          -0.0641913          -0.0654754          -0.0668298
          -0.0682525            -0.06974          -0.0712876
          -0.0728887           -0.074535          -0.0762154
          -0.0779178          -0.0796269          -0.0813251
          -0.0829921          -0.0846044          -0.0861362
          -0.0875582          -0.0888375          -0.0899395
          -0.0908254          -0.0914549          -0.0917846