title = "SUGAR TECPLOT"
variables = "X", "Y", "Z", "Var"
 zone T = "Mesh", I= 100, J=1, K=1, DATAPACKING=BLOCK
 VARLOCATION = ([4] = CELLCENTERED)

              0            0.8            1.6            2.4            3.2              4            4.8            5.6            6.4            7.2              8            8.8            9.6           10.4           11.2             12           12.8           13.6           14.4           15.2             16           16.8           17.6           18.4           19.2             20           20.8           21.6           22.4           23.2             24           24.8           25.6           26.4           27.2             28           28.8           29.6           30.4           31.2             32           32.8           33.6           34.4           35.2             36           36.8           37.6           38.4           39.2             40           40.8           41.6           42.4           43.2             44           44.8           45.6           46.4           47.2             48           48.8           49.6           50.4           51.2             52           52.8           53.6           54.4           55.2             56           56.8           57.6           58.4           59.2             60           60.8           61.6           62.4           63.2             64           64.8           65.6           66.4           67.2             68           68.8           69.6           70.4           71.2             72           72.8           73.6           74.4           75.2             76           76.8           77.6           78.4           79.2

              0              0              0              0              0              0              0              0              0              0              0              0              0              0              0              0              0              0              0              0              0              0              0              0              0              0              0              0              0              0              0              0              0              0              0              0              0              0              0              0              0              0              0              0              0              0              0              0              0              0              0              0              0              0              0              0              0              0              0              0              0              0              0              0              0              0              0              0              0              0              0              0              0              0              0              0              0              0              0              0              0              0              0              0              0              0              0              0              0              0              0              0              0              0              0              0              0              0              0              0

              0              0              0              0              0              0              0              0              0              0              0              0              0              0              0              0              0              0              0              0              0              0              0              0              0              0              0              0              0              0              0              0              0              0              0              0              0              0              0              0              0              0              0              0              0              0              0              0              0              0              0              0              0              0              0              0              0              0              0              0              0              0              0              0              0              0              0              0              0              0              0              0              0              0              0              0              0              0              0              0              0              0              0              0              0              0              0              0              0              0              0              0              0              0              0              0              0              0              0              0

          -0.0408046           0.0582052           -0.112974
            0.207916           -0.167733            0.041679
          -0.0335661           0.0141022          -0.0890401
            -0.12748             0.23859           0.0249168
           -0.135084            0.117008           0.0583627
           0.0785667            0.203132           0.0743856
           0.0348579           -0.138633            0.101615
           0.0148381           0.0475788          -0.0246513
           0.0599257             0.10405          -0.0578992
            0.107057           -0.104576          -0.0371679
          -0.0046963            0.105939           -0.117655
          -0.0149408           0.0130423          -0.0343917
         -0.00924814          -0.0176048            0.021708
         -0.00938365         -0.00566066          0.00256646
         -0.00861054          0.00259009        -0.000400637
         -0.00623003         0.000605626         -0.00791475
         -0.00279707         -0.00461462           0.0046441
         -0.00826665         -0.00596356           0.0156747
        -4.17839e-06          0.00648914          0.00503901
         -0.00839937         -0.00474847           0.0029695
           0.0069003          0.00134385          0.00331062
         -0.00396102           -0.003052          -0.0134729
          0.00530754         -0.00443148          0.00221261
         -0.00142234          0.00476604         -0.00404286
         -0.00436607          0.00262039         -0.00450691
         -0.00191819          0.00251077         0.000432263
          0.00135703         -0.00070852         0.000214147
         6.47041e-05         0.000600703         0.000896213
        -9.66155e-05        -0.000752507        -0.000419174
        -0.000354782        -0.000164879        -0.000691843
         -0.00111129        -4.92832e-06         -0.00102081
         0.000625421         7.04369e-05        -3.99086e-05
         0.000612351         0.000536691         -0.00102814
         0.000131084           0.0848895          0.00179207
          -0.0419402           0.0671191          -0.0204554
           0.0301955           0.0668864          -0.0137439
            0.030277          -0.0152653            0.120419
          -0.0861637          -0.0760629            0.148984
          -0.0340588          -0.0579669          -0.0359372
           0.0746968          -0.0284208          -0.0295461
           0.0198454           0.0129185           0.0333689
          0.00163937           0.0142318           0.0191139
            0.009211           0.0669866          0.00975443
            0.012043           0.0109935          0.00483474
          -0.0356001          -0.0137942          -0.0211614
           0.0402631           0.0208798           0.0578843
          0.00653391           0.0100327          0.00201872
         -3.6029e-05         -0.00206503        -0.000472574
          0.00432927         -0.00591218          0.00671684
         -0.00973783         -0.00289053          0.00132887
         -0.00739466         -0.00291108          0.00155831
          0.00405795        -0.000550081         -0.00538348
         -0.00280861         -0.00540125          -0.0046278
          -0.0069267         -0.00750568         0.000838173
          0.00156311         -0.00049854         -0.00590003
          0.00290184        -0.000103965         -0.00333296
          0.00155417          0.00522937          0.00036408
          0.00217021         -0.00363256          0.00110992
         -0.00158923         0.000407293         -0.00100187
        -0.000802781          -0.0020068        -0.000348423
        -0.000362905         0.000137113        -0.000203878
          0.00106492        -0.000571992         7.94674e-05
         0.000233819        -0.000423981         2.87695e-05
        -0.000388936        -0.000358793        -0.000217328
         0.000105522        -0.000418015        -0.000709832
         0.000229374         0.000186351        -7.59442e-05
        -6.57023e-05        -0.000641786