Title=Realfreq_0
VARIABLES= "x", "fr_0(x,t)"
ZONE F=BLOCK, T="0", I=400
            -10          -9.95           -9.9
          -9.85           -9.8          -9.75
           -9.7          -9.65           -9.6
          -9.55           -9.5          -9.45
           -9.4          -9.35           -9.3
          -9.25           -9.2          -9.15
           -9.1          -9.05             -9
          -8.95           -8.9          -8.85
           -8.8          -8.75           -8.7
          -8.65           -8.6          -8.55
           -8.5          -8.45           -8.4
          -8.35           -8.3          -8.25
           -8.2          -8.15           -8.1
          -8.05             -8          -7.95
           -7.9          -7.85           -7.8
          -7.75           -7.7          -7.65
           -7.6          -7.55           -7.5
          -7.45           -7.4          -7.35
           -7.3          -7.25           -7.2
          -7.15           -7.1          -7.05
             -7          -6.95           -6.9
          -6.85           -6.8          -6.75
           -6.7          -6.65           -6.6
          -6.55           -6.5          -6.45
           -6.4          -6.35           -6.3
          -6.25           -6.2          -6.15
           -6.1          -6.05             -6
          -5.95           -5.9          -5.85
           -5.8          -5.75           -5.7
          -5.65           -5.6          -5.55
           -5.5          -5.45           -5.4
          -5.35           -5.3          -5.25
           -5.2          -5.15           -5.1
          -5.05             -5          -4.95
           -4.9          -4.85           -4.8
          -4.75           -4.7          -4.65
           -4.6          -4.55           -4.5
          -4.45           -4.4          -4.35
           -4.3          -4.25           -4.2
          -4.15           -4.1          -4.05
             -4          -3.95           -3.9
          -3.85           -3.8          -3.75
           -3.7          -3.65           -3.6
          -3.55           -3.5          -3.45
           -3.4          -3.35           -3.3
          -3.25           -3.2          -3.15
           -3.1          -3.05             -3
          -2.95           -2.9          -2.85
           -2.8          -2.75           -2.7
          -2.65           -2.6          -2.55
           -2.5          -2.45           -2.4
          -2.35           -2.3          -2.25
           -2.2          -2.15           -2.1
          -2.05             -2          -1.95
           -1.9          -1.85           -1.8
          -1.75           -1.7          -1.65
           -1.6          -1.55           -1.5
          -1.45           -1.4          -1.35
           -1.3          -1.25           -1.2
          -1.15           -1.1          -1.05
             -1          -0.95           -0.9
          -0.85           -0.8          -0.75
           -0.7          -0.65           -0.6
          -0.55           -0.5          -0.45
           -0.4          -0.35           -0.3
          -0.25           -0.2          -0.15
           -0.1          -0.05              0
           0.05            0.1           0.15
            0.2           0.25            0.3
           0.35            0.4           0.45
            0.5           0.55            0.6
           0.65            0.7           0.75
            0.8           0.85            0.9
           0.95              1           1.05
            1.1           1.15            1.2
           1.25            1.3           1.35
            1.4           1.45            1.5
           1.55            1.6           1.65
            1.7           1.75            1.8
           1.85            1.9           1.95
              2           2.05            2.1
           2.15            2.2           2.25
            2.3           2.35            2.4
           2.45            2.5           2.55
            2.6           2.65            2.7
           2.75            2.8           2.85
            2.9           2.95              3
           3.05            3.1           3.15
            3.2           3.25            3.3
           3.35            3.4           3.45
            3.5           3.55            3.6
           3.65            3.7           3.75
            3.8           3.85            3.9
           3.95              4           4.05
            4.1           4.15            4.2
           4.25            4.3           4.35
            4.4           4.45            4.5
           4.55            4.6           4.65
            4.7           4.75            4.8
           4.85            4.9           4.95
              5           5.05            5.1
           5.15            5.2           5.25
            5.3           5.35            5.4
           5.45            5.5           5.55
            5.6           5.65            5.7
           5.75            5.8           5.85
            5.9           5.95              6
           6.05            6.1           6.15
            6.2           6.25            6.3
           6.35            6.4           6.45
            6.5           6.55            6.6
           6.65            6.7           6.75
            6.8           6.85            6.9
           6.95              7           7.05
            7.1           7.15            7.2
           7.25            7.3           7.35
            7.4           7.45            7.5
           7.55            7.6           7.65
            7.7           7.75            7.8
           7.85            7.9           7.95
              8           8.05            8.1
           8.15            8.2           8.25
            8.3           8.35            8.4
           8.45            8.5           8.55
            8.6           8.65            8.7
           8.75            8.8           8.85
            8.9           8.95              9
           9.05            9.1           9.15
            9.2           9.25            9.3
           9.35            9.4           9.45
            9.5           9.55            9.6
           9.65            9.7           9.75
            9.8           9.85            9.9
           9.95
     0.00182376     0.00191727
     0.00201557     0.00211891     0.00222755
     0.00234176     0.00246182     0.00258804
     0.00272073     0.00286023     0.00300687
     0.00316104     0.00332311     0.00349348
      0.0036726     0.00386089     0.00405884
     0.00426694     0.00448571      0.0047157
     0.00495747     0.00521165     0.00547885
     0.00575975     0.00605505      0.0063655
     0.00669186     0.00703495     0.00739563
      0.0077748     0.00817341     0.00859245
     0.00903298     0.00949609     0.00998294
      0.0104947      0.0110328      0.0115984
       0.012193      0.0128181      0.0134753
      0.0141661      0.0148923      0.0156558
      0.0164584      0.0173021       0.018189
      0.0191215      0.0201016       0.021132
      0.0222153      0.0233539       0.024551
      0.0258093      0.0271321      0.0285227
      0.0299844       0.031521      0.0331362
      0.0348342       0.036619      0.0384951
      0.0404672      0.0425402      0.0447192
      0.0470095      0.0494168      0.0519472
      0.0546067      0.0574019      0.0603397
      0.0634274      0.0666723      0.0700824
      0.0736661       0.077432      0.0813892
      0.0855472      0.0899159      0.0945059
      0.0993279       0.104393       0.109714
       0.115303       0.121172       0.127335
       0.133807       0.140601       0.147732
       0.155217       0.163071       0.171311
       0.179955       0.189019       0.198522
       0.208482       0.218919        0.22985
       0.241295       0.253272       0.265802
       0.278903       0.292592       0.306887
       0.321805        0.33736       0.353567
       0.370437       0.387978       0.406197
       0.425096       0.444673       0.464922
        0.48583       0.507379       0.529542
       0.552286       0.575568       0.599334
       0.623521       0.648054       0.672845
       0.697795       0.722788         0.7477
        0.77239       0.796705       0.820484
       0.843551       0.865725       0.886819
       0.906643       0.925007       0.941728
       0.956628       0.969544       0.980328
       0.988855       0.995021       0.998751
              1       0.998751       0.995021
       0.988855       0.980328       0.969544
       0.956628       0.941728       0.925007
       0.906643       0.886819       0.865725
       0.843551       0.820484       0.796705
        0.77239         0.7477       0.722788
       0.697795       0.672845       0.648054
       0.623521       0.599334       0.575568
       0.552286       0.529542       0.507379
        0.48583       0.464922       0.444673
       0.425096       0.406197       0.387978
       0.370437       0.353567        0.33736
       0.321805       0.306887       0.292592
       0.278903       0.265802       0.253272
       0.241295        0.22985       0.218919
       0.208482       0.198522       0.189019
       0.179955       0.171311       0.163071
       0.155217       0.147732       0.140601
       0.133807       0.127335       0.121172
       0.115303       0.109714       0.104393
      0.0993279      0.0945059      0.0899159
      0.0855472      0.0813892       0.077432
      0.0736661      0.0700824      0.0666723
      0.0634274      0.0603397      0.0574019
      0.0546067      0.0519472      0.0494168
      0.0470095      0.0447192      0.0425402
      0.0404672      0.0384951       0.036619
      0.0348342      0.0331362       0.031521
      0.0299844      0.0285227      0.0271321
      0.0258093       0.024551      0.0233539
      0.0222153       0.021132      0.0201016
      0.0191215       0.018189      0.0173021
      0.0164584      0.0156558      0.0148923
      0.0141661      0.0134753      0.0128181
       0.012193      0.0115984      0.0110328
      0.0104947     0.00998294     0.00949609
     0.00903298     0.00859245     0.00817341
      0.0077748     0.00739563     0.00703495
     0.00669186      0.0063655     0.00605505
     0.00575975     0.00547885     0.00521165
     0.00495747      0.0047157     0.00448571
     0.00426694     0.00405884     0.00386089
      0.0036726     0.00349348     0.00332311
     0.00316104     0.00300687     0.00286023
     0.00272073     0.00258804     0.00246182
     0.00234176     0.00222755     0.00211891
     0.00201557     0.00191727     0.00182376
     0.00173482     0.00165021     0.00156973
     0.00149317     0.00142035     0.00135108
     0.00128518     0.00122251     0.00116288
     0.00110617     0.00105222      0.0010009
    0.000952088    0.000905654    0.000861485
     0.00081947    0.000779504    0.000741487
    0.000705324    0.000670925    0.000638204
    0.000607078    0.000577471    0.000549307
    0.000522517    0.000497034    0.000472793
    0.000449735    0.000427801    0.000406937
     0.00038709    0.000368212    0.000350254
    0.000333172    0.000316923    0.000301466
    0.000286763    0.000272778    0.000259474
     0.00024682    0.000234782    0.000223332
     0.00021244    0.000202079    0.000192223
    0.000182848    0.000173931    0.000165448
    0.000157379    0.000149704    0.000142403
    0.000135457    0.000128851    0.000122567
    0.000116589    0.000110903    0.000105494
    0.000100349    9.54553e-05    9.07999e-05
    8.63715e-05    8.21591e-05    7.81522e-05
    7.43406e-05     7.0715e-05    6.72662e-05
    6.39856e-05     6.0865e-05    5.78965e-05
    5.50729e-05     5.2387e-05     4.9832e-05
    4.74017e-05    4.50899e-05    4.28908e-05
     4.0799e-05    3.88092e-05    3.69165e-05
     3.5116e-05    3.34034e-05    3.17743e-05
    3.02246e-05    2.87506e-05    2.73484e-05
    2.60146e-05    2.47458e-05     2.3539e-05
     2.2391e-05    2.12989e-05    2.02602e-05
    1.92721e-05    1.83322e-05    1.74381e-05
    1.65876e-05    1.57786e-05    1.50091e-05
    1.42771e-05    1.35808e-05    1.29185e-05
    1.22884e-05    1.16891e-05     1.1119e-05
    1.05767e-05    1.00609e-05    9.57023e-06
    9.10349e-06    8.65951e-06    8.23718e-06
    7.83545e-06    7.45331e-06     7.0898e-06
    6.74403e-06    6.41512e-06    6.10225e-06
    5.80464e-06    5.52155e-06    5.25226e-06
     4.9961e-06    4.75244e-06
ZONE F=BLOCK, T="0.0628319", I=400
            -10          -9.95           -9.9
          -9.85           -9.8          -9.75
           -9.7          -9.65           -9.6
          -9.55           -9.5          -9.45
           -9.4          -9.35           -9.3
          -9.25           -9.2          -9.15
           -9.1          -9.05             -9
          -8.95           -8.9          -8.85
           -8.8          -8.75           -8.7
          -8.65           -8.6          -8.55
           -8.5          -8.45           -8.4
          -8.35           -8.3          -8.25
           -8.2          -8.15           -8.1
          -8.05             -8          -7.95
           -7.9          -7.85           -7.8
          -7.75           -7.7          -7.65
           -7.6          -7.55           -7.5
          -7.45           -7.4          -7.35
           -7.3          -7.25           -7.2
          -7.15           -7.1          -7.05
             -7          -6.95           -6.9
          -6.85           -6.8          -6.75
           -6.7          -6.65           -6.6
          -6.55           -6.5          -6.45
           -6.4          -6.35           -6.3
          -6.25           -6.2          -6.15
           -6.1          -6.05             -6
          -5.95           -5.9          -5.85
           -5.8          -5.75           -5.7
          -5.65           -5.6          -5.55
           -5.5          -5.45           -5.4
          -5.35           -5.3          -5.25
           -5.2          -5.15           -5.1
          -5.05             -5          -4.95
           -4.9          -4.85           -4.8
          -4.75           -4.7          -4.65
           -4.6          -4.55           -4.5
          -4.45           -4.4          -4.35
           -4.3          -4.25           -4.2
          -4.15           -4.1          -4.05
             -4          -3.95           -3.9
          -3.85           -3.8          -3.75
           -3.7          -3.65           -3.6
          -3.55           -3.5          -3.45
           -3.4          -3.35           -3.3
          -3.25           -3.2          -3.15
           -3.1          -3.05             -3
          -2.95           -2.9          -2.85
           -2.8          -2.75           -2.7
          -2.65           -2.6          -2.55
           -2.5          -2.45           -2.4
          -2.35           -2.3          -2.25
           -2.2          -2.15           -2.1
          -2.05             -2          -1.95
           -1.9          -1.85           -1.8
          -1.75           -1.7          -1.65
           -1.6          -1.55           -1.5
          -1.45           -1.4          -1.35
           -1.3          -1.25           -1.2
          -1.15           -1.1          -1.05
             -1          -0.95           -0.9
          -0.85           -0.8          -0.75
           -0.7          -0.65           -0.6
          -0.55           -0.5          -0.45
           -0.4          -0.35           -0.3
          -0.25           -0.2          -0.15
           -0.1          -0.05              0
           0.05            0.1           0.15
            0.2           0.25            0.3
           0.35            0.4           0.45
            0.5           0.55            0.6
           0.65            0.7           0.75
            0.8           0.85            0.9
           0.95              1           1.05
            1.1           1.15            1.2
           1.25            1.3           1.35
            1.4           1.45            1.5
           1.55            1.6           1.65
            1.7           1.75            1.8
           1.85            1.9           1.95
              2           2.05            2.1
           2.15            2.2           2.25
            2.3           2.35            2.4
           2.45            2.5           2.55
            2.6           2.65            2.7
           2.75            2.8           2.85
            2.9           2.95              3
           3.05            3.1           3.15
            3.2           3.25            3.3
           3.35            3.4           3.45
            3.5           3.55            3.6
           3.65            3.7           3.75
            3.8           3.85            3.9
           3.95              4           4.05
            4.1           4.15            4.2
           4.25            4.3           4.35
            4.4           4.45            4.5
           4.55            4.6           4.65
            4.7           4.75            4.8
           4.85            4.9           4.95
              5           5.05            5.1
           5.15            5.2           5.25
            5.3           5.35            5.4
           5.45            5.5           5.55
            5.6           5.65            5.7
           5.75            5.8           5.85
            5.9           5.95              6
           6.05            6.1           6.15
            6.2           6.25            6.3
           6.35            6.4           6.45
            6.5           6.55            6.6
           6.65            6.7           6.75
            6.8           6.85            6.9
           6.95              7           7.05
            7.1           7.15            7.2
           7.25            7.3           7.35
            7.4           7.45            7.5
           7.55            7.6           7.65
            7.7           7.75            7.8
           7.85            7.9           7.95
              8           8.05            8.1
           8.15            8.2           8.25
            8.3           8.35            8.4
           8.45            8.5           8.55
            8.6           8.65            8.7
           8.75            8.8           8.85
            8.9           8.95              9
           9.05            9.1           9.15
            9.2           9.25            9.3
           9.35            9.4           9.45
            9.5           9.55            9.6
           9.65            9.7           9.75
            9.8           9.85            9.9
           9.95
     0.00179345      0.0018854
     0.00198207     0.00208369     0.00219052
     0.00230283      0.0024209     0.00254502
     0.00267551     0.00281268     0.00295689
     0.00310849     0.00326787     0.00343541
     0.00361155     0.00379672     0.00399138
     0.00419602     0.00441115     0.00463731
     0.00487507     0.00512502     0.00538778
     0.00566401     0.00595441     0.00625969
     0.00658062     0.00691801      0.0072727
     0.00764556     0.00803755     0.00844963
     0.00888283     0.00933824       0.009817
      0.0103203      0.0108494      0.0114056
      0.0119904      0.0126051      0.0132513
      0.0139306      0.0146448      0.0153956
      0.0161848      0.0170145      0.0178867
      0.0188036      0.0197675      0.0207808
       0.021846      0.0229658      0.0241429
      0.0253803      0.0266811      0.0280486
       0.029486      0.0309971      0.0325855
      0.0342552      0.0360103      0.0378553
      0.0397946      0.0418331      0.0439758
      0.0462281      0.0485954      0.0510837
       0.053699      0.0564478      0.0593368
      0.0623731      0.0655641      0.0689175
      0.0724416      0.0761449      0.0800363
      0.0841252      0.0884213       0.092935
      0.0976769       0.102658       0.107891
       0.113386       0.119158       0.125219
       0.131583       0.138264       0.145277
       0.152637       0.160361       0.168464
       0.176964       0.185877       0.195222
       0.205017        0.21528       0.226029
       0.237284       0.249062       0.261384
       0.274267       0.287728       0.301786
       0.316456       0.331753        0.34769
       0.364279       0.381529       0.399445
        0.41803       0.437282       0.457194
       0.477755       0.498945        0.52074
       0.543106       0.566001       0.589372
       0.613157       0.637282       0.661661
       0.686196       0.710774       0.735272
       0.759551       0.783463       0.806846
       0.829529       0.851335       0.872078
       0.891573       0.909632       0.926074
       0.940727       0.953428       0.964033
       0.972418       0.978481        0.98215
       0.983378        0.98215       0.978481
       0.972418       0.964033       0.953428
       0.940727       0.926074       0.909632
       0.891573       0.872078       0.851335
       0.829529       0.806846       0.783463
       0.759551       0.735272       0.710774
       0.686196       0.661661       0.637282
       0.613157       0.589372       0.566001
       0.543106        0.52074       0.498945
       0.477755       0.457194       0.437282
        0.41803       0.399445       0.381529
       0.364279        0.34769       0.331753
       0.316456       0.301786       0.287728
       0.274267       0.261384       0.249062
       0.237284       0.226029        0.21528
       0.205017       0.195222       0.185877
       0.176964       0.168464       0.160361
       0.152637       0.145277       0.138264
       0.131583       0.125219       0.119158
       0.113386       0.107891       0.102658
      0.0976769       0.092935      0.0884213
      0.0841252      0.0800363      0.0761449
      0.0724416      0.0689175      0.0655641
      0.0623731      0.0593368      0.0564478
       0.053699      0.0510837      0.0485954
      0.0462281      0.0439758      0.0418331
      0.0397946      0.0378553      0.0360103
      0.0342552      0.0325855      0.0309971
       0.029486      0.0280486      0.0266811
      0.0253803      0.0241429      0.0229658
       0.021846      0.0207808      0.0197675
      0.0188036      0.0178867      0.0170145
      0.0161848      0.0153956      0.0146448
      0.0139306      0.0132513      0.0126051
      0.0119904      0.0114056      0.0108494
      0.0103203       0.009817     0.00933824
     0.00888283     0.00844963     0.00803755
     0.00764556      0.0072727     0.00691801
     0.00658062     0.00625969     0.00595441
     0.00566401     0.00538778     0.00512502
     0.00487507     0.00463731     0.00441115
     0.00419602     0.00399138     0.00379672
     0.00361155     0.00343541     0.00326787
     0.00310849     0.00295689     0.00281268
     0.00267551     0.00254502      0.0024209
     0.00230283     0.00219052     0.00208369
     0.00198207      0.0018854     0.00179345
     0.00170598     0.00162278     0.00154364
     0.00146835     0.00139674     0.00132862
     0.00126382     0.00120218     0.00114355
     0.00108778     0.00103473    0.000984266
    0.000936262      0.0008906    0.000847165
    0.000805849    0.000766547    0.000729162
      0.0006936    0.000659773    0.000627596
    0.000596987    0.000567872    0.000540176
    0.000513832    0.000488772    0.000464934
    0.000442259     0.00042069    0.000400173
    0.000380656    0.000362091    0.000344432
    0.000327634    0.000311655    0.000296455
    0.000281997    0.000268244    0.000255161
    0.000242717     0.00023088    0.000219619
    0.000208908     0.00019872    0.000189028
    0.000179809     0.00017104    0.000162698
    0.000154763    0.000147215    0.000140035
    0.000133206    0.000126709     0.00012053
    0.000114651     0.00010906    0.000103741
    9.86813e-05    9.38686e-05    8.92906e-05
    8.49358e-05    8.07935e-05    7.68531e-05
    7.31049e-05    6.95396e-05    6.61481e-05
     6.2922e-05    5.98533e-05    5.69342e-05
    5.41575e-05    5.15162e-05    4.90037e-05
    4.66138e-05    4.43404e-05    4.21779e-05
    4.01208e-05    3.81641e-05    3.63028e-05
    3.45323e-05    3.28482e-05    3.12461e-05
    2.97223e-05    2.82727e-05    2.68938e-05
    2.55822e-05    2.43345e-05    2.31477e-05
    2.20188e-05    2.09449e-05    1.99234e-05
    1.89517e-05    1.80275e-05    1.71482e-05
    1.63119e-05    1.55164e-05    1.47596e-05
    1.40398e-05    1.33551e-05    1.27037e-05
    1.20842e-05    1.14948e-05    1.09342e-05
    1.04009e-05    9.89368e-06    9.41116e-06
    8.95217e-06    8.51557e-06    8.10026e-06
     7.7052e-06    7.32942e-06    6.97196e-06
    6.63193e-06    6.30849e-06    6.00082e-06
    5.70816e-06    5.42977e-06    5.16495e-06
    4.91306e-06    4.67344e-06
ZONE F=BLOCK, T="0.125664", I=400
            -10          -9.95           -9.9
          -9.85           -9.8          -9.75
           -9.7          -9.65           -9.6
          -9.55           -9.5          -9.45
           -9.4          -9.35           -9.3
          -9.25           -9.2          -9.15
           -9.1          -9.05             -9
          -8.95           -8.9          -8.85
           -8.8          -8.75           -8.7
          -8.65           -8.6          -8.55
           -8.5          -8.45           -8.4
          -8.35           -8.3          -8.25
           -8.2          -8.15           -8.1
          -8.05             -8          -7.95
           -7.9          -7.85           -7.8
          -7.75           -7.7          -7.65
           -7.6          -7.55           -7.5
          -7.45           -7.4          -7.35
           -7.3          -7.25           -7.2
          -7.15           -7.1          -7.05
             -7          -6.95           -6.9
          -6.85           -6.8          -6.75
           -6.7          -6.65           -6.6
          -6.55           -6.5          -6.45
           -6.4          -6.35           -6.3
          -6.25           -6.2          -6.15
           -6.1          -6.05             -6
          -5.95           -5.9          -5.85
           -5.8          -5.75           -5.7
          -5.65           -5.6          -5.55
           -5.5          -5.45           -5.4
          -5.35           -5.3          -5.25
           -5.2          -5.15           -5.1
          -5.05             -5          -4.95
           -4.9          -4.85           -4.8
          -4.75           -4.7          -4.65
           -4.6          -4.55           -4.5
          -4.45           -4.4          -4.35
           -4.3          -4.25           -4.2
          -4.15           -4.1          -4.05
             -4          -3.95           -3.9
          -3.85           -3.8          -3.75
           -3.7          -3.65           -3.6
          -3.55           -3.5          -3.45
           -3.4          -3.35           -3.3
          -3.25           -3.2          -3.15
           -3.1          -3.05             -3
          -2.95           -2.9          -2.85
           -2.8          -2.75           -2.7
          -2.65           -2.6          -2.55
           -2.5          -2.45           -2.4
          -2.35           -2.3          -2.25
           -2.2          -2.15           -2.1
          -2.05             -2          -1.95
           -1.9          -1.85           -1.8
          -1.75           -1.7          -1.65
           -1.6          -1.55           -1.5
          -1.45           -1.4          -1.35
           -1.3          -1.25           -1.2
          -1.15           -1.1          -1.05
             -1          -0.95           -0.9
          -0.85           -0.8          -0.75
           -0.7          -0.65           -0.6
          -0.55           -0.5          -0.45
           -0.4          -0.35           -0.3
          -0.25           -0.2          -0.15
           -0.1          -0.05              0
           0.05            0.1           0.15
            0.2           0.25            0.3
           0.35            0.4           0.45
            0.5           0.55            0.6
           0.65            0.7           0.75
            0.8           0.85            0.9
           0.95              1           1.05
            1.1           1.15            1.2
           1.25            1.3           1.35
            1.4           1.45            1.5
           1.55            1.6           1.65
            1.7           1.75            1.8
           1.85            1.9           1.95
              2           2.05            2.1
           2.15            2.2           2.25
            2.3           2.35            2.4
           2.45            2.5           2.55
            2.6           2.65            2.7
           2.75            2.8           2.85
            2.9           2.95              3
           3.05            3.1           3.15
            3.2           3.25            3.3
           3.35            3.4           3.45
            3.5           3.55            3.6
           3.65            3.7           3.75
            3.8           3.85            3.9
           3.95              4           4.05
            4.1           4.15            4.2
           4.25            4.3           4.35
            4.4           4.45            4.5
           4.55            4.6           4.65
            4.7           4.75            4.8
           4.85            4.9           4.95
              5           5.05            5.1
           5.15            5.2           5.25
            5.3           5.35            5.4
           5.45            5.5           5.55
            5.6           5.65            5.7
           5.75            5.8           5.85
            5.9           5.95              6
           6.05            6.1           6.15
            6.2           6.25            6.3
           6.35            6.4           6.45
            6.5           6.55            6.6
           6.65            6.7           6.75
            6.8           6.85            6.9
           6.95              7           7.05
            7.1           7.15            7.2