Title=Realfreq_composed
VARIABLES= "x", "fr_composed(x,t)"
ZONE F=BLOCK, T="0", I=400
            -10          -9.95           -9.9
          -9.85           -9.8          -9.75
           -9.7          -9.65           -9.6
          -9.55           -9.5          -9.45
           -9.4          -9.35           -9.3
          -9.25           -9.2          -9.15
           -9.1          -9.05             -9
          -8.95           -8.9          -8.85
           -8.8          -8.75           -8.7
          -8.65           -8.6          -8.55
           -8.5          -8.45           -8.4
          -8.35           -8.3          -8.25
           -8.2          -8.15           -8.1
          -8.05             -8          -7.95
           -7.9          -7.85           -7.8
          -7.75           -7.7          -7.65
           -7.6          -7.55           -7.5
          -7.45           -7.4          -7.35
           -7.3          -7.25           -7.2
          -7.15           -7.1          -7.05
             -7          -6.95           -6.9
          -6.85           -6.8          -6.75
           -6.7          -6.65           -6.6
          -6.55           -6.5          -6.45
           -6.4          -6.35           -6.3
          -6.25           -6.2          -6.15
           -6.1          -6.05             -6
          -5.95           -5.9          -5.85
           -5.8          -5.75           -5.7
          -5.65           -5.6          -5.55
           -5.5          -5.45           -5.4
          -5.35           -5.3          -5.25
           -5.2          -5.15           -5.1
          -5.05             -5          -4.95
           -4.9          -4.85           -4.8
          -4.75           -4.7          -4.65
           -4.6          -4.55           -4.5
          -4.45           -4.4          -4.35
           -4.3          -4.25           -4.2
          -4.15           -4.1          -4.05
             -4          -3.95           -3.9
          -3.85           -3.8          -3.75
           -3.7          -3.65           -3.6
          -3.55           -3.5          -3.45
           -3.4          -3.35           -3.3
          -3.25           -3.2          -3.15
           -3.1          -3.05             -3
          -2.95           -2.9          -2.85
           -2.8          -2.75           -2.7
          -2.65           -2.6          -2.55
           -2.5          -2.45           -2.4
          -2.35           -2.3          -2.25
           -2.2          -2.15           -2.1
          -2.05             -2          -1.95
           -1.9          -1.85           -1.8
          -1.75           -1.7          -1.65
           -1.6          -1.55           -1.5
          -1.45           -1.4          -1.35
           -1.3          -1.25           -1.2
          -1.15           -1.1          -1.05
             -1          -0.95           -0.9
          -0.85           -0.8          -0.75
           -0.7          -0.65           -0.6
          -0.55           -0.5          -0.45
           -0.4          -0.35           -0.3
          -0.25           -0.2          -0.15
           -0.1          -0.05              0
           0.05            0.1           0.15
            0.2           0.25            0.3
           0.35            0.4           0.45
            0.5           0.55            0.6
           0.65            0.7           0.75
            0.8           0.85            0.9
           0.95              1           1.05
            1.1           1.15            1.2
           1.25            1.3           1.35
            1.4           1.45            1.5
           1.55            1.6           1.65
            1.7           1.75            1.8
           1.85            1.9           1.95
              2           2.05            2.1
           2.15            2.2           2.25
            2.3           2.35            2.4
           2.45            2.5           2.55
            2.6           2.65            2.7
           2.75            2.8           2.85
            2.9           2.95              3
           3.05            3.1           3.15
            3.2           3.25            3.3
           3.35            3.4           3.45
            3.5           3.55            3.6
           3.65            3.7           3.75
            3.8           3.85            3.9
           3.95              4           4.05
            4.1           4.15            4.2
           4.25            4.3           4.35
            4.4           4.45            4.5
           4.55            4.6           4.65
            4.7           4.75            4.8
           4.85            4.9           4.95
              5           5.05            5.1
           5.15            5.2           5.25
            5.3           5.35            5.4
           5.45            5.5           5.55
            5.6           5.65            5.7
           5.75            5.8           5.85
            5.9           5.95              6
           6.05            6.1           6.15
            6.2           6.25            6.3
           6.35            6.4           6.45
            6.5           6.55            6.6
           6.65            6.7           6.75
            6.8           6.85            6.9
           6.95              7           7.05
            7.1           7.15            7.2
           7.25            7.3           7.35
            7.4           7.45            7.5
           7.55            7.6           7.65
            7.7           7.75            7.8
           7.85            7.9           7.95
              8           8.05            8.1
           8.15            8.2           8.25
            8.3           8.35            8.4
           8.45            8.5           8.55
            8.6           8.65            8.7
           8.75            8.8           8.85
            8.9           8.95              9
           9.05            9.1           9.15
            9.2           9.25            9.3
           9.35            9.4           9.45
            9.5           9.55            9.6
           9.65            9.7           9.75
            9.8           9.85            9.9
           9.95
     0.00164216     0.00172636
     0.00181487     0.00190792     0.00200574
     0.00210858     0.00221669     0.00233034
     0.00244982     0.00257542     0.00270746
     0.00284628     0.00299221     0.00314562
      0.0033069     0.00347645     0.00365469
     0.00384206     0.00403905     0.00424613
     0.00446383      0.0046927     0.00493329
     0.00518622     0.00545212     0.00573165
     0.00602551     0.00633444      0.0066592
     0.00700062     0.00735953     0.00773685
     0.00813351      0.0085505     0.00898887
     0.00944971     0.00993418      0.0104435
      0.0109789      0.0115417      0.0121334
      0.0127555      0.0134094      0.0140968
      0.0148194      0.0155791      0.0163777
      0.0172173      0.0180998      0.0190276
      0.0200029      0.0210282       0.022106
       0.023239        0.02443       0.025682
      0.0269981      0.0283815      0.0298358
      0.0313645      0.0329715      0.0346606
      0.0364361      0.0383024      0.0402641
       0.042326      0.0444932      0.0467711
      0.0491652      0.0516815       0.054326
      0.0571053      0.0600261      0.0630955
       0.066321      0.0697103      0.0732716
      0.0770134      0.0809446      0.0850746
      0.0894131      0.0939703      0.0987567
       0.103784       0.109062       0.114605
       0.120423       0.126531       0.132941
       0.139668       0.146725       0.154127
        0.16189       0.170028       0.178557
       0.187494       0.196854       0.206654
        0.21691       0.227638       0.238854
       0.250573        0.26281       0.275579
       0.288893       0.302761       0.317195
       0.332201       0.347783       0.363942
       0.380676       0.397978       0.415835
       0.434229       0.453134        0.47252
       0.492344       0.512557       0.533098
       0.553895       0.574865       0.595912
       0.616926       0.637785       0.658351
       0.678475       0.697993        0.71673
         0.7345        0.75111       0.766359
       0.780044        0.79196       0.801908
       0.809696       0.815145        0.81809
       0.818387       0.815917       0.810585
       0.802327       0.791105       0.776917
       0.759787        0.73977       0.716946
       0.691421        0.66332       0.632785
       0.599971       0.565042       0.528167
       0.489516        0.44926       0.407564
       0.364587       0.320483       0.275397
       0.229465       0.182817       0.135573
      0.0878501      0.0397597    -0.00858915
     -0.0570874      -0.105624      -0.154081
      -0.202336      -0.250253      -0.297681
      -0.344454      -0.390384      -0.435261
      -0.478846      -0.520873      -0.561043
      -0.599027      -0.634459      -0.666941
      -0.696043      -0.721306      -0.742247
      -0.758363      -0.769144      -0.774082
      -0.772683      -0.764484      -0.749073
      -0.726102      -0.695314      -0.656557
      -0.609806      -0.555179      -0.492948
      -0.423549      -0.347583      -0.265813
      -0.179148     -0.0886292     0.00460145
      0.0993279       0.194298       0.288259
       0.379998       0.468374       0.552351
       0.631022       0.703631       0.769584
       0.828451       0.879968       0.924027
       0.960664       0.990039        1.01242
        1.02817        1.03772        1.04153
        1.04012        1.03401        1.02373
        1.00978       0.992669       0.972867
       0.950816       0.926927       0.901572
       0.875092        0.84779       0.819935
       0.791765       0.763486       0.735276
       0.707288       0.679649       0.652468
       0.625832       0.599813       0.574467
       0.549837       0.525957       0.502847
       0.480522        0.45899       0.438249
       0.418297       0.399125        0.38072
       0.363067        0.34615        0.32995
       0.314446       0.299618       0.285443
       0.271899       0.258963       0.246613
       0.234827       0.223583       0.212858
       0.202631       0.192882       0.183589
       0.174734       0.166297        0.15826
       0.150605       0.143314       0.136371
        0.12976       0.123466       0.117475
       0.111771       0.106342       0.101175
      0.0962568      0.0915764      0.0871223
      0.0828838      0.0788505      0.0750126
      0.0713609      0.0678863      0.0645804
       0.061435      0.0584425      0.0555953
      0.0528866      0.0503097       0.047858
      0.0455257      0.0433069      0.0411961
       0.039188      0.0372777      0.0354605
      0.0337318      0.0320873      0.0305229
      0.0290347       0.027619      0.0262724
      0.0249913      0.0237727      0.0226136
      0.0215109      0.0204619      0.0194641
       0.018515      0.0176121      0.0167532
      0.0159362      0.0151591      0.0144198
      0.0137166      0.0130477      0.0124114
      0.0118061      0.0112303      0.0106826
      0.0101616     0.00966607     0.00919467
     0.00874625      0.0083197     0.00791395
     0.00752799     0.00716086     0.00681162
     0.00647942     0.00616342     0.00586283
      0.0055769     0.00530491     0.00504619
     0.00480009     0.00456599      0.0043433
     0.00413148     0.00392999     0.00373832
       0.003556     0.00338257      0.0032176
     0.00306068     0.00291141     0.00276942
     0.00263435     0.00250587     0.00238366
     0.00226741     0.00215683     0.00205164
     0.00195158      0.0018564     0.00176586
     0.00167974     0.00159782     0.00151989
     0.00144576     0.00137525     0.00130818
     0.00124438     0.00118369     0.00112596
     0.00107105     0.00101881    0.000969125
     0.00092186      0.0008769    0.000834134
    0.000793452    0.000754755    0.000717945
    0.000682931    0.000649624    0.000617941
    0.000587804    0.000559136    0.000531867
    0.000505928    0.000481253    0.000457782
    0.000435456    0.000414219    0.000394017
      0.0003748    0.000356521    0.000339133
    0.000322594    0.000306861    0.000291895
    0.000277659    0.000264117    0.000251236
    0.000238983    0.000227328    0.000216241
    0.000205695    0.000195663
ZONE F=BLOCK, T="0.0628319", I=400
            -10          -9.95           -9.9
          -9.85           -9.8          -9.75
           -9.7          -9.65           -9.6
          -9.55           -9.5          -9.45
           -9.4          -9.35           -9.3
          -9.25           -9.2          -9.15
           -9.1          -9.05             -9
          -8.95           -8.9          -8.85
           -8.8          -8.75           -8.7
          -8.65           -8.6          -8.55
           -8.5          -8.45           -8.4
          -8.35           -8.3          -8.25
           -8.2          -8.15           -8.1
          -8.05             -8          -7.95
           -7.9          -7.85           -7.8
          -7.75           -7.7          -7.65
           -7.6          -7.55           -7.5
          -7.45           -7.4          -7.35
           -7.3          -7.25           -7.2
          -7.15           -7.1          -7.05
             -7          -6.95           -6.9
          -6.85           -6.8          -6.75
           -6.7          -6.65           -6.6
          -6.55           -6.5          -6.45
           -6.4          -6.35           -6.3
          -6.25           -6.2          -6.15
           -6.1          -6.05             -6
          -5.95           -5.9          -5.85
           -5.8          -5.75           -5.7
          -5.65           -5.6          -5.55
           -5.5          -5.45           -5.4
          -5.35           -5.3          -5.25
           -5.2          -5.15           -5.1
          -5.05             -5          -4.95
           -4.9          -4.85           -4.8
          -4.75           -4.7          -4.65
           -4.6          -4.55           -4.5
          -4.45           -4.4          -4.35
           -4.3          -4.25           -4.2
          -4.15           -4.1          -4.05
             -4          -3.95           -3.9
          -3.85           -3.8          -3.75
           -3.7          -3.65           -3.6
          -3.55           -3.5          -3.45
           -3.4          -3.35           -3.3
          -3.25           -3.2          -3.15
           -3.1          -3.05             -3
          -2.95           -2.9          -2.85
           -2.8          -2.75           -2.7
          -2.65           -2.6          -2.55
           -2.5          -2.45           -2.4
          -2.35           -2.3          -2.25
           -2.2          -2.15           -2.1
          -2.05             -2          -1.95
           -1.9          -1.85           -1.8
          -1.75           -1.7          -1.65
           -1.6          -1.55           -1.5
          -1.45           -1.4          -1.35
           -1.3          -1.25           -1.2
          -1.15           -1.1          -1.05
             -1          -0.95           -0.9
          -0.85           -0.8          -0.75
           -0.7          -0.65           -0.6
          -0.55           -0.5          -0.45
           -0.4          -0.35           -0.3
          -0.25           -0.2          -0.15
           -0.1          -0.05              0
           0.05            0.1           0.15
            0.2           0.25            0.3
           0.35            0.4           0.45
            0.5           0.55            0.6
           0.65            0.7           0.75
            0.8           0.85            0.9
           0.95              1           1.05
            1.1           1.15            1.2
           1.25            1.3           1.35
            1.4           1.45            1.5
           1.55            1.6           1.65
            1.7           1.75            1.8
           1.85            1.9           1.95
              2           2.05            2.1
           2.15            2.2           2.25
            2.3           2.35            2.4
           2.45            2.5           2.55
            2.6           2.65            2.7
           2.75            2.8           2.85
            2.9           2.95              3
           3.05            3.1           3.15
            3.2           3.25            3.3
           3.35            3.4           3.45
            3.5           3.55            3.6
           3.65            3.7           3.75
            3.8           3.85            3.9
           3.95              4           4.05
            4.1           4.15            4.2
           4.25            4.3           4.35
            4.4           4.45            4.5
           4.55            4.6           4.65
            4.7           4.75            4.8
           4.85            4.9           4.95
              5           5.05            5.1
           5.15            5.2           5.25
            5.3           5.35            5.4
           5.45            5.5           5.55
            5.6           5.65            5.7
           5.75            5.8           5.85
            5.9           5.95              6
           6.05            6.1           6.15
            6.2           6.25            6.3
           6.35            6.4           6.45
            6.5           6.55            6.6
           6.65            6.7           6.75
            6.8           6.85            6.9
           6.95              7           7.05
            7.1           7.15            7.2
           7.25            7.3           7.35
            7.4           7.45            7.5
           7.55            7.6           7.65
            7.7           7.75            7.8
           7.85            7.9           7.95
              8           8.05            8.1
           8.15            8.2           8.25
            8.3           8.35            8.4
           8.45            8.5           8.55
            8.6           8.65            8.7
           8.75            8.8           8.85
            8.9           8.95              9
           9.05            9.1           9.15
            9.2           9.25            9.3
           9.35            9.4           9.45
            9.5           9.55            9.6
           9.65            9.7           9.75
            9.8           9.85            9.9
           9.95
     0.00161688     0.00169978
     0.00178693     0.00187855     0.00197487
     0.00207612     0.00218256     0.00229447
      0.0024121     0.00253578     0.00266579
     0.00280246     0.00294615      0.0030972
       0.003256     0.00342293     0.00359843
     0.00378292     0.00397687     0.00418077
     0.00439512     0.00462046     0.00485735
     0.00510639     0.00536819     0.00564342
     0.00593276     0.00623693     0.00655669
     0.00689285     0.00724624     0.00761775
      0.0080083     0.00841888      0.0088505
     0.00930425     0.00978126      0.0102827
      0.0108099      0.0113641      0.0119467
      0.0125591      0.0132029      0.0138798
      0.0145913      0.0153393      0.0161256
      0.0169522      0.0178212      0.0187347
       0.019695      0.0207045      0.0217657
      0.0228812      0.0240539      0.0252866
      0.0265825      0.0279447      0.0293766
      0.0308817      0.0324639      0.0341271
      0.0358752      0.0377128      0.0396443
      0.0416745      0.0438083      0.0460512
      0.0484085       0.050886      0.0534898
      0.0562263      0.0591022      0.0621244
      0.0653002      0.0686373      0.0721438
       0.075828      0.0796988      0.0837652
       0.088037      0.0925241      0.0972369
       0.102186       0.107384       0.112841
        0.11857       0.124584       0.130896
       0.137519       0.144468       0.151756
       0.159399       0.167413       0.175811
       0.184611       0.193827       0.203477
       0.213576       0.224139       0.235183
       0.246723       0.258773       0.271346
       0.284456       0.298113       0.312327
       0.327104       0.342449       0.358362
       0.374842       0.391882       0.409468
       0.427584       0.446205       0.465299
       0.484826       0.504737       0.524973
       0.545462       0.566123       0.586862
        0.60757       0.628128         0.6484
        0.66824       0.687487       0.705969
       0.723503       0.739899       0.754959
       0.768484       0.780274       0.790132
       0.797869        0.80331       0.806294
       0.806678       0.804345       0.799202
       0.791186       0.780262       0.766426
       0.749702       0.730145       0.707835
       0.682874       0.655387       0.625513
       0.593405       0.559224       0.523137
       0.485312       0.445916       0.405112
       0.363057       0.319902       0.275789
       0.230853       0.185221       0.139012
      0.0923404      0.0453149    -0.00195723
     -0.0493692     -0.0968122      -0.144172
      -0.191328      -0.238148      -0.284486
       -0.33018      -0.375046      -0.418881
      -0.461452      -0.502501      -0.541738
      -0.578841      -0.613456      -0.645196
      -0.673643      -0.698351       -0.71885
      -0.734653      -0.745262      -0.750184
       -0.74894      -0.741079      -0.726201
      -0.703968       -0.67413      -0.636539
      -0.591172      -0.538142      -0.477716
      -0.410317       -0.33653      -0.257096
        -0.1729     -0.0849527     0.00563351
      0.0976769        0.18996       0.281265
       0.370411        0.45629       0.537894
       0.614341       0.684897       0.748983
       0.806182       0.856236       0.899041
       0.934631       0.963162       0.984897
        1.00018        1.00944        1.01312
        1.01173        1.00577       0.995746
       0.982165        0.96551       0.946239
       0.924783       0.901539       0.876872
       0.851112       0.824553       0.797457
       0.770056       0.742549        0.71511
       0.687887       0.661004       0.634567
        0.60866       0.583353       0.558702
       0.534747       0.511521       0.489045
       0.467333        0.44639       0.426219
       0.406814       0.388168       0.370268
       0.353099       0.336647       0.320891
       0.305813       0.291392       0.277605
       0.264433       0.251853       0.239842
       0.228379       0.217444       0.207013
       0.197067       0.187585       0.178548
       0.169936       0.161731       0.153914
       0.146469       0.139378       0.132626
       0.126197       0.120076       0.114249
       0.108702       0.103422      0.0983965
      0.0936135      0.0890617      0.0847299
      0.0806077      0.0766852      0.0729527
      0.0694013      0.0660221       0.062807
       0.059748      0.0568376      0.0540687
      0.0514343      0.0489281      0.0465438
      0.0442755      0.0421176      0.0400648
      0.0381119      0.0362541      0.0344867
      0.0328055      0.0312061      0.0296847
      0.0282374      0.0268606      0.0255509
      0.0243051      0.0231199      0.0219926
      0.0209202         0.0199      0.0189296
      0.0180065      0.0171284      0.0162931
      0.0154986      0.0147428      0.0140238
      0.0133399      0.0126894      0.0120705
      0.0114819      0.0109219      0.0103893
      0.0098826     0.00940063     0.00894217
     0.00850607     0.00809124     0.00769663
     0.00732127     0.00696421     0.00662457
     0.00630149     0.00599417     0.00570183
     0.00542375     0.00515924     0.00490762
     0.00466827      0.0044406     0.00422403
     0.00401802     0.00382206     0.00363566
     0.00345835     0.00328968     0.00312924
     0.00297663     0.00283146     0.00269337
     0.00256201     0.00243706      0.0023182
     0.00220514      0.0020976      0.0019953
     0.00189798     0.00180542     0.00171737
     0.00163361     0.00155394     0.00147815
     0.00140606     0.00133749     0.00127226
     0.00121021     0.00115119     0.00109504
     0.00104164    0.000990836    0.000942512
    0.000896545     0.00085282    0.000811228
    0.000771664    0.000734029     0.00069823
    0.000664177    0.000631785    0.000600972
    0.000571662    0.000543782    0.000517262
    0.000492034    0.000468038    0.000445211
    0.000423498    0.000402844    0.000383197
    0.000364508    0.000346731    0.000329821
    0.000313735    0.000298434    0.000283879
    0.000270034    0.000256865    0.000244337
    0.000232421    0.000221085    0.000210303
    0.000200046     0.00019029
ZONE F=BLOCK, T="0.125664", I=400
            -10          -9.95           -9.9
          -9.85           -9.8          -9.75
           -9.7          -9.65           -9.6
          -9.55           -9.5          -9.45
           -9.4          -9.35           -9.3
          -9.25           -9.2          -9.15
           -9.1          -9.05             -9
          -8.95           -8.9          -8.85
           -8.8          -8.75           -8.7
          -8.65           -8.6          -8.55
           -8.5          -8.45           -8.4
          -8.35           -8.3          -8.25
           -8.2          -8.15           -8.1
          -8.05             -8          -7.95
           -7.9          -7.85           -7.8
          -7.75           -7.7          -7.65
           -7.6          -7.55           -7.5
          -7.45           -7.4          -7.35
           -7.3          -7.25           -7.2
          -7.15           -7.1          -7.05
             -7          -6.95           -6.9
          -6.85           -6.8          -6.75
           -6.7          -6.65           -6.6
          -6.55           -6.5          -6.45
           -6.4          -6.35           -6.3
          -6.25           -6.2          -6.15
           -6.1          -6.05             -6
          -5.95           -5.9          -5.85
           -5.8          -5.75           -5.7
          -5.65           -5.6          -5.55
           -5.5          -5.45           -5.4
          -5.35           -5.3          -5.25
           -5.2          -5.15           -5.1
          -5.05             -5          -4.95
           -4.9          -4.85           -4.8
          -4.75           -4.7          -4.65
           -4.6          -4.55           -4.5
          -4.45           -4.4          -4.35
           -4.3          -4.25           -4.2
          -4.15           -4.1          -4.05
             -4          -3.95           -3.9
          -3.85           -3.8          -3.75
           -3.7          -3.65           -3.6
          -3.55           -3.5          -3.45
           -3.4          -3.35           -3.3
          -3.25           -3.2          -3.15
           -3.1          -3.05             -3
          -2.95           -2.9          -2.85
           -2.8          -2.75           -2.7
          -2.65           -2.6          -2.55
           -2.5          -2.45           -2.4
          -2.35           -2.3          -2.25
           -2.2          -2.15           -2.1
          -2.05             -2          -1.95
           -1.9          -1.85           -1.8
          -1.75           -1.7          -1.65
           -1.6          -1.55           -1.5
          -1.45           -1.4          -1.35
           -1.3          -1.25           -1.2
          -1.15           -1.1          -1.05
             -1          -0.95           -0.9
          -0.85           -0.8          -0.75
           -0.7          -0.65           -0.6
          -0.55           -0.5          -0.45
           -0.4          -0.35           -0.3
          -0.25           -0.2          -0.15
           -0.1          -0.05              0
           0.05            0.1           0.15
            0.2           0.25            0.3
           0.35            0.4           0.45
            0.5           0.55            0.6
           0.65            0.7           0.75
            0.8           0.85            0.9
           0.95              1           1.05
            1.1           1.15            1.2
           1.25            1.3           1.35
            1.4           1.45            1.5
           1.55            1.6           1.65
            1.7           1.75            1.8
           1.85            1.9           1.95
              2           2.05            2.1
           2.15            2.2           2.25
            2.3           2.35            2.4
           2.45            2.5           2.55
            2.6           2.65            2.7
           2.75            2.8           2.85
            2.9           2.95              3
           3.05            3.1           3.15
            3.2           3.25            3.3
           3.35            3.4           3.45
            3.5           3.55            3.6
           3.65            3.7           3.75
            3.8           3.85            3.9
           3.95              4           4.05
            4.1           4.15            4.2
           4.25            4.3           4.35
            4.4           4.45            4.5
           4.55            4.6           4.65
            4.7           4.75            4.8
           4.85            4.9           4.95
              5           5.05            5.1
           5.15            5.2           5.25
            5.3           5.35            5.4
           5.45            5.5           5.55
            5.6           5.65            5.7
           5.75            5.8           5.85
            5.9           5.95              6
           6.05            6.1           6.15
            6.2           6.25            6.3
           6.35            6.4           6.45
            6.5           6.55            6.6
           6.65            6.7           6.75
            6.8           6.85            6.9
           6.95              7           7.05
            7.1           7.15            7.2