Title = f_reconstructed_dmd_real
VARIABLES= "x", "f_DMD(x,t)"
ZONE F=BLOCK, T="0", I=400
            -10          -9.95           -9.9
          -9.85           -9.8          -9.75
           -9.7          -9.65           -9.6
          -9.55           -9.5          -9.45
           -9.4          -9.35           -9.3
          -9.25           -9.2          -9.15
           -9.1          -9.05             -9
          -8.95           -8.9          -8.85
           -8.8          -8.75           -8.7
          -8.65           -8.6          -8.55
           -8.5          -8.45           -8.4
          -8.35           -8.3          -8.25
           -8.2          -8.15           -8.1
          -8.05             -8          -7.95
           -7.9          -7.85           -7.8
          -7.75           -7.7          -7.65
           -7.6          -7.55           -7.5
          -7.45           -7.4          -7.35
           -7.3          -7.25           -7.2
          -7.15           -7.1          -7.05
             -7          -6.95           -6.9
          -6.85           -6.8          -6.75
           -6.7          -6.65           -6.6
          -6.55           -6.5          -6.45
           -6.4          -6.35           -6.3
          -6.25           -6.2          -6.15
           -6.1          -6.05             -6
          -5.95           -5.9          -5.85
           -5.8          -5.75           -5.7
          -5.65           -5.6          -5.55
           -5.5          -5.45           -5.4
          -5.35           -5.3          -5.25
           -5.2          -5.15           -5.1
          -5.05             -5          -4.95
           -4.9          -4.85           -4.8
          -4.75           -4.7          -4.65
           -4.6          -4.55           -4.5
          -4.45           -4.4          -4.35
           -4.3          -4.25           -4.2
          -4.15           -4.1          -4.05
             -4          -3.95           -3.9
          -3.85           -3.8          -3.75
           -3.7          -3.65           -3.6
          -3.55           -3.5          -3.45
           -3.4          -3.35           -3.3
          -3.25           -3.2          -3.15
           -3.1          -3.05             -3
          -2.95           -2.9          -2.85
           -2.8          -2.75           -2.7
          -2.65           -2.6          -2.55
           -2.5          -2.45           -2.4
          -2.35           -2.3          -2.25
           -2.2          -2.15           -2.1
          -2.05             -2          -1.95
           -1.9          -1.85           -1.8
          -1.75           -1.7          -1.65
           -1.6          -1.55           -1.5
          -1.45           -1.4          -1.35
           -1.3          -1.25           -1.2
          -1.15           -1.1          -1.05
             -1          -0.95           -0.9
          -0.85           -0.8          -0.75
           -0.7          -0.65           -0.6
          -0.55           -0.5          -0.45
           -0.4          -0.35           -0.3
          -0.25           -0.2          -0.15
           -0.1          -0.05              0
           0.05            0.1           0.15
            0.2           0.25            0.3
           0.35            0.4           0.45
            0.5           0.55            0.6
           0.65            0.7           0.75
            0.8           0.85            0.9
           0.95              1           1.05
            1.1           1.15            1.2
           1.25            1.3           1.35
            1.4           1.45            1.5
           1.55            1.6           1.65
            1.7           1.75            1.8
           1.85            1.9           1.95
              2           2.05            2.1
           2.15            2.2           2.25
            2.3           2.35            2.4
           2.45            2.5           2.55
            2.6           2.65            2.7
           2.75            2.8           2.85
            2.9           2.95              3
           3.05            3.1           3.15
            3.2           3.25            3.3
           3.35            3.4           3.45
            3.5           3.55            3.6
           3.65            3.7           3.75
            3.8           3.85            3.9
           3.95              4           4.05
            4.1           4.15            4.2
           4.25            4.3           4.35
            4.4           4.45            4.5
           4.55            4.6           4.65
            4.7           4.75            4.8
           4.85            4.9           4.95
              5           5.05            5.1
           5.15            5.2           5.25
            5.3           5.35            5.4
           5.45            5.5           5.55
            5.6           5.65            5.7
           5.75            5.8           5.85
            5.9           5.95              6
           6.05            6.1           6.15
            6.2           6.25            6.3
           6.35            6.4           6.45
            6.5           6.55            6.6
           6.65            6.7           6.75
            6.8           6.85            6.9
           6.95              7           7.05
            7.1           7.15            7.2
           7.25            7.3           7.35
            7.4           7.45            7.5
           7.55            7.6           7.65
            7.7           7.75            7.8
           7.85            7.9           7.95
              8           8.05            8.1
           8.15            8.2           8.25
            8.3           8.35            8.4
           8.45            8.5           8.55
            8.6           8.65            8.7
           8.75            8.8           8.85
            8.9           8.95              9
           9.05            9.1           9.15
            9.2           9.25            9.3
           9.35            9.4           9.45
            9.5           9.55            9.6
           9.65            9.7           9.75
            9.8           9.85            9.9
           9.95
     0.00163414     0.00171792
       0.001806      0.0018986     0.00199594
     0.00209828     0.00220585     0.00231895
     0.00243785     0.00256284     0.00269424
     0.00283237     0.00297759     0.00313025
     0.00329074     0.00345946     0.00363683
     0.00382329     0.00401931     0.00422539
     0.00444202     0.00466977     0.00490919
     0.00516088     0.00542548     0.00570365
     0.00599607     0.00630349     0.00662667
     0.00696641     0.00732357     0.00769905
     0.00809377     0.00850872     0.00894495
     0.00940354     0.00988564      0.0103925
      0.0109252      0.0114853      0.0120742
      0.0126931      0.0133438      0.0140279
       0.014747       0.015503      0.0162977
      0.0171332      0.0180114      0.0189346
      0.0199052      0.0209254       0.021998
      0.0231254      0.0243106      0.0255565
      0.0268662      0.0282429      0.0296901
      0.0312113      0.0328104      0.0344913
      0.0362581      0.0381153      0.0400674
      0.0421192      0.0442758      0.0465426
       0.048925       0.051429      0.0540606
      0.0568263      0.0597328      0.0627873
       0.065997      0.0693697      0.0729136
      0.0766371      0.0805491       0.084659
      0.0889763      0.0935112      0.0982743
       0.103277       0.108529       0.114045
       0.119835       0.125913       0.132292
       0.138986       0.146008       0.153375
       0.161099       0.169198       0.177685
       0.186579       0.195893       0.205645
       0.215851       0.226527       0.237688
        0.24935       0.261528       0.274235
       0.287483       0.301285       0.315649
       0.330581       0.346088       0.362169
       0.378822        0.39604        0.41381
       0.432115        0.45093       0.470223
       0.489952       0.510068       0.530511
       0.551209       0.572079       0.593027
       0.613942       0.634703       0.655173
       0.675204       0.694633       0.713286
       0.730977       0.747515       0.762699
       0.776328       0.788198        0.79811
       0.805876       0.811314       0.814262
       0.814578       0.812141       0.806858
       0.798664       0.787524       0.773434
       0.756418       0.736531       0.713853
        0.68849       0.660564       0.630219
       0.597608       0.562895       0.526247
       0.487834       0.447826       0.406387
       0.363676       0.319845       0.275038
       0.229392       0.183035       0.136088
      0.0886656      0.0408793     -0.0071624
     -0.0553515      -0.103577      -0.151723
      -0.199666      -0.247272      -0.294392
       -0.34086      -0.386489      -0.431072
      -0.474371      -0.516122      -0.556029
      -0.593764      -0.628965      -0.661237
      -0.690153      -0.715257       -0.73607
      -0.752094      -0.762821      -0.767747
      -0.766383       -0.75827      -0.742997
       -0.72022      -0.689684      -0.651238
      -0.604857      -0.550658      -0.488911
       -0.42005       -0.34467      -0.263529
      -0.177529     -0.0877035     0.00481393
      0.0988166       0.193062       0.286306
       0.377346       0.465047       0.548384
       0.626454       0.698509       0.763958
       0.822376       0.873499        0.91722
       0.953574       0.982722        1.00493
        1.02056        1.03003        1.03381
         1.0324        1.02634        1.01612
        1.00227       0.985288       0.965631
       0.943742       0.920029       0.894862
       0.868577       0.841477       0.813829
       0.785868       0.757799       0.729799
       0.702018       0.674585       0.647606
       0.621168       0.595343       0.570185
       0.545739       0.522036       0.499099
       0.476941       0.455568       0.434982
       0.415179       0.396149       0.377881
       0.360361        0.34357        0.32749
       0.312102       0.297384       0.283315
       0.269871       0.257032       0.244775
       0.233076       0.221916       0.211271
        0.20112       0.191443        0.18222
       0.173431       0.165057        0.15708
       0.149482       0.142245       0.135354
       0.128793       0.122546       0.116599
       0.110938       0.105549        0.10042
       0.095539      0.0908935      0.0864727
      0.0822657      0.0782625      0.0744533
      0.0708288      0.0673801      0.0640988
      0.0609769      0.0580067      0.0551808
      0.0524923      0.0499345      0.0475012
      0.0451862       0.042984      0.0408889
      0.0388958      0.0369998      0.0351961
      0.0334802       0.031848      0.0302953
      0.0288182      0.0274131      0.0260765
       0.024805      0.0235955      0.0224449
      0.0213505      0.0203093       0.019319
      0.0183769      0.0174807      0.0166283
      0.0158174       0.015046      0.0143123
      0.0136143      0.0129504      0.0123188
       0.011718      0.0111466       0.010603
      0.0100859     0.00959399     0.00912611
     0.00868103     0.00825766     0.00785494
     0.00747186     0.00710746     0.00676083
      0.0064311     0.00611746     0.00581911
     0.00553531     0.00526536     0.00500856
      0.0047643     0.00453194     0.00431092
     0.00410067     0.00390068     0.00371044
     0.00352948     0.00335735     0.00319361
     0.00303786      0.0028897     0.00274877
     0.00261471     0.00248719     0.00236589
      0.0022505     0.00214074     0.00203634
     0.00193703     0.00184255     0.00175269
     0.00166721      0.0015859     0.00150856
     0.00143498       0.001365     0.00129843
      0.0012351     0.00117487     0.00111757
     0.00106306     0.00101122    0.000961898
    0.000914986    0.000870362    0.000827914
    0.000787536    0.000749127    0.000712592
    0.000677838     0.00064478    0.000613333
    0.000583421    0.000554967    0.000527901
    0.000502155    0.000477665    0.000454369
    0.000432209     0.00041113    0.000391079
    0.000372006    0.000353863    0.000336605
    0.000320188    0.000304572    0.000289718
    0.000275588    0.000262148    0.000249363
    0.000237201    0.000225633    0.000214629
    0.000204161    0.000194204
ZONE F=BLOCK, T="0.0628319", I=400
            -10          -9.95           -9.9
          -9.85           -9.8          -9.75
           -9.7          -9.65           -9.6
          -9.55           -9.5          -9.45
           -9.4          -9.35           -9.3
          -9.25           -9.2          -9.15
           -9.1          -9.05             -9
          -8.95           -8.9          -8.85
           -8.8          -8.75           -8.7
          -8.65           -8.6          -8.55
           -8.5          -8.45           -8.4
          -8.35           -8.3          -8.25
           -8.2          -8.15           -8.1
          -8.05             -8          -7.95
           -7.9          -7.85           -7.8
          -7.75           -7.7          -7.65
           -7.6          -7.55           -7.5
          -7.45           -7.4          -7.35
           -7.3          -7.25           -7.2
          -7.15           -7.1          -7.05
             -7          -6.95           -6.9
          -6.85           -6.8          -6.75
           -6.7          -6.65           -6.6
          -6.55           -6.5          -6.45
           -6.4          -6.35           -6.3
          -6.25           -6.2          -6.15
           -6.1          -6.05             -6
          -5.95           -5.9          -5.85
           -5.8          -5.75           -5.7
          -5.65           -5.6          -5.55
           -5.5          -5.45           -5.4
          -5.35           -5.3          -5.25
           -5.2          -5.15           -5.1
          -5.05             -5          -4.95
           -4.9          -4.85           -4.8
          -4.75           -4.7          -4.65
           -4.6          -4.55           -4.5
          -4.45           -4.4          -4.35
           -4.3          -4.25           -4.2
          -4.15           -4.1          -4.05
             -4          -3.95           -3.9
          -3.85           -3.8          -3.75
           -3.7          -3.65           -3.6
          -3.55           -3.5          -3.45
           -3.4          -3.35           -3.3
          -3.25           -3.2          -3.15
           -3.1          -3.05             -3
          -2.95           -2.9          -2.85
           -2.8          -2.75           -2.7
          -2.65           -2.6          -2.55
           -2.5          -2.45           -2.4
          -2.35           -2.3          -2.25
           -2.2          -2.15           -2.1
          -2.05             -2          -1.95
           -1.9          -1.85           -1.8
          -1.75           -1.7          -1.65
           -1.6          -1.55           -1.5
          -1.45           -1.4          -1.35
           -1.3          -1.25           -1.2
          -1.15           -1.1          -1.05
             -1          -0.95           -0.9
          -0.85           -0.8          -0.75
           -0.7          -0.65           -0.6
          -0.55           -0.5          -0.45
           -0.4          -0.35           -0.3
          -0.25           -0.2          -0.15
           -0.1          -0.05              0
           0.05            0.1           0.15
            0.2           0.25            0.3
           0.35            0.4           0.45
            0.5           0.55            0.6
           0.65            0.7           0.75
            0.8           0.85            0.9
           0.95              1           1.05
            1.1           1.15            1.2
           1.25            1.3           1.35
            1.4           1.45            1.5
           1.55            1.6           1.65
            1.7           1.75            1.8
           1.85            1.9           1.95
              2           2.05            2.1
           2.15            2.2           2.25
            2.3           2.35            2.4
           2.45            2.5           2.55
            2.6           2.65            2.7
           2.75            2.8           2.85
            2.9           2.95              3
           3.05            3.1           3.15
            3.2           3.25            3.3
           3.35            3.4           3.45
            3.5           3.55            3.6
           3.65            3.7           3.75
            3.8           3.85            3.9
           3.95              4           4.05
            4.1           4.15            4.2
           4.25            4.3           4.35
            4.4           4.45            4.5
           4.55            4.6           4.65
            4.7           4.75            4.8
           4.85            4.9           4.95
              5           5.05            5.1
           5.15            5.2           5.25
            5.3           5.35            5.4
           5.45            5.5           5.55
            5.6           5.65            5.7
           5.75            5.8           5.85
            5.9           5.95              6
           6.05            6.1           6.15
            6.2           6.25            6.3
           6.35            6.4           6.45
            6.5           6.55            6.6
           6.65            6.7           6.75
            6.8           6.85            6.9
           6.95              7           7.05
            7.1           7.15            7.2
           7.25            7.3           7.35
            7.4           7.45            7.5
           7.55            7.6           7.65
            7.7           7.75            7.8
           7.85            7.9           7.95
              8           8.05            8.1
           8.15            8.2           8.25
            8.3           8.35            8.4
           8.45            8.5           8.55
            8.6           8.65            8.7
           8.75            8.8           8.85
            8.9           8.95              9
           9.05            9.1           9.15
            9.2           9.25            9.3
           9.35            9.4           9.45
            9.5           9.55            9.6
           9.65            9.7           9.75
            9.8           9.85            9.9
           9.95
     0.00162498      0.0017083
     0.00179588     0.00188796     0.00198476
     0.00208652     0.00219349     0.00230596
     0.00242419     0.00254848     0.00267914
      0.0028165      0.0029609     0.00311271
      0.0032723     0.00344008     0.00361645
     0.00380187     0.00399679     0.00420171
     0.00441713      0.0046436     0.00488168
     0.00513197     0.00539508     0.00567169
     0.00596248     0.00626817     0.00658954
     0.00692738     0.00728254     0.00765591
     0.00804842     0.00846105     0.00889483
     0.00935085     0.00983025      0.0103342
       0.010864       0.011421      0.0120065
       0.012622      0.0132691      0.0139493
      0.0146644      0.0154161      0.0162064
      0.0170372      0.0179105      0.0188286
      0.0197937      0.0208082      0.0218747
      0.0229958      0.0241744      0.0254133
      0.0267156      0.0280846      0.0295237
      0.0310364      0.0326265       0.034298
      0.0360549      0.0379017      0.0398429
      0.0418832      0.0440278      0.0462818
      0.0486509      0.0511409      0.0537577
      0.0565079      0.0593982      0.0624355
      0.0656272      0.0689811      0.0725051
      0.0762078      0.0800979      0.0841847
      0.0884779      0.0929874      0.0977239
       0.102698       0.107922       0.113406
       0.119164       0.125208       0.131551
       0.138208       0.145191       0.152516
       0.160197       0.168251       0.176691
       0.185535       0.194797       0.204495
       0.214644       0.225261        0.23636
       0.247957       0.260067       0.272703
       0.285879       0.299604       0.313888
       0.328739        0.34416       0.360152
       0.376714       0.393838       0.411511
       0.429717        0.44843       0.467618
       0.487241        0.50725       0.527584
       0.548173       0.568935       0.589774
       0.610582       0.631239       0.651607
       0.671541       0.690878       0.709444
       0.727058       0.743527       0.758652
       0.772234        0.78407       0.793963
       0.801724       0.807176       0.810155
       0.810521       0.808155       0.802963
       0.794881       0.783874       0.769939
         0.7531       0.733412       0.710953
        0.68583       0.658165       0.628099
       0.595785       0.561387        0.52507
       0.487004       0.447358       0.406294
        0.36397       0.320539       0.276144
       0.230919       0.184992       0.138483
      0.0915074      0.0441744    -0.00340821
     -0.0511332     -0.0988905      -0.146566
      -0.194037      -0.241171      -0.287821
      -0.333823      -0.378993      -0.423125
      -0.465986      -0.507314      -0.546817
      -0.584171       -0.61902      -0.650973
      -0.679609      -0.704477      -0.725105
      -0.741002      -0.751665      -0.756599
      -0.755318      -0.747371      -0.732353
      -0.709924       -0.67983      -0.641925
      -0.596183      -0.542721      -0.481804
      -0.413861       -0.33948      -0.259409
       -0.17454     -0.0858909     0.00541718
      0.0981932        0.19121        0.28324
       0.373095       0.459656       0.541908
       0.618963        0.69008       0.754676
        0.81233       0.862784       0.905931
       0.941805       0.970566       0.992478
        1.00789        1.01722        1.02094
        1.01954        1.01354        1.00344
       0.989761        0.97298       0.953562
       0.931942        0.90852       0.883664
       0.857705       0.830942       0.803637
       0.776024       0.748305       0.720654
        0.69322        0.66613       0.639488
        0.61338       0.587878       0.563035
       0.538895       0.515489       0.492839
       0.470958       0.449853       0.429526
        0.40997       0.391179        0.37314
       0.355839       0.339259       0.323381
       0.308186       0.293653       0.279759
       0.266485       0.253807       0.241703
       0.230152       0.219131       0.208619
       0.198596       0.189041       0.179933
       0.171255       0.162986       0.155109
       0.147606        0.14046       0.133655
       0.127176       0.121008       0.115136
       0.109545       0.104224        0.09916
        0.09434      0.0897528      0.0853874
      0.0812333      0.0772803      0.0735189
      0.0699398      0.0665344      0.0632944
      0.0602116      0.0572787      0.0544882
      0.0518335      0.0493078       0.046905
      0.0446191      0.0424445      0.0403757
      0.0384076      0.0365354      0.0347544
        0.03306      0.0314483       0.029915
      0.0284565       0.027069      0.0257492
      0.0244937      0.0232993      0.0221632
      0.0210825      0.0200544      0.0190765
      0.0181463      0.0172613      0.0164196
      0.0156189      0.0148572      0.0141326
      0.0134434      0.0127878      0.0121642
       0.011571      0.0110067      0.0104699
     0.00995929     0.00947358     0.00901157
     0.00857208     0.00815402     0.00775636
     0.00737808     0.00701826     0.00667598
     0.00635039     0.00604068     0.00574608
     0.00546584     0.00519927      0.0049457
      0.0047045     0.00447506     0.00425681
      0.0040492     0.00385172     0.00366388
     0.00348519     0.00331521     0.00315353
     0.00299973     0.00285343     0.00271427
     0.00258189     0.00245597     0.00233619
     0.00222226     0.00211387     0.00201078
     0.00191271     0.00181943      0.0017307
     0.00164629       0.001566     0.00148962
     0.00141697     0.00134787     0.00128213
      0.0012196     0.00116012     0.00110354
     0.00104972    0.000998525    0.000949826
    0.000903503    0.000859438    0.000817523
    0.000777652    0.000739725    0.000703649
    0.000669331    0.000636687    0.000605636
    0.000576099    0.000548002    0.000521276
    0.000495853     0.00047167    0.000448666
    0.000426784     0.00040597    0.000386171
    0.000367337    0.000349422     0.00033238
     0.00031617     0.00030075    0.000286082
     0.00027213    0.000258858    0.000246233
    0.000234224    0.000222801    0.000211935
    0.000201599    0.000191767
ZONE F=BLOCK, T="0.125664", I=400
            -10          -9.95           -9.9
          -9.85           -9.8          -9.75
           -9.7          -9.65           -9.6
          -9.55           -9.5          -9.45
           -9.4          -9.35           -9.3
          -9.25           -9.2          -9.15
           -9.1          -9.05             -9
          -8.95           -8.9          -8.85
           -8.8          -8.75           -8.7
          -8.65           -8.6          -8.55
           -8.5          -8.45           -8.4
          -8.35           -8.3          -8.25
           -8.2          -8.15           -8.1
          -8.05             -8          -7.95
           -7.9          -7.85           -7.8
          -7.75           -7.7          -7.65
           -7.6          -7.55           -7.5
          -7.45           -7.4          -7.35
           -7.3          -7.25           -7.2
          -7.15           -7.1          -7.05
             -7          -6.95           -6.9
          -6.85           -6.8          -6.75
           -6.7          -6.65           -6.6
          -6.55           -6.5          -6.45
           -6.4          -6.35           -6.3
          -6.25           -6.2          -6.15
           -6.1          -6.05             -6
          -5.95           -5.9          -5.85
           -5.8          -5.75           -5.7
          -5.65           -5.6          -5.55
           -5.5          -5.45           -5.4
          -5.35           -5.3          -5.25
           -5.2          -5.15           -5.1
          -5.05             -5          -4.95
           -4.9          -4.85           -4.8
          -4.75           -4.7          -4.65
           -4.6          -4.55           -4.5
          -4.45           -4.4          -4.35
           -4.3          -4.25           -4.2
          -4.15           -4.1          -4.05
             -4          -3.95           -3.9
          -3.85           -3.8          -3.75
           -3.7          -3.65           -3.6
          -3.55           -3.5          -3.45
           -3.4          -3.35           -3.3
          -3.25           -3.2          -3.15
           -3.1          -3.05             -3
          -2.95           -2.9          -2.85
           -2.8          -2.75           -2.7
          -2.65           -2.6          -2.55
           -2.5          -2.45           -2.4
          -2.35           -2.3          -2.25
           -2.2          -2.15           -2.1
          -2.05             -2          -1.95
           -1.9          -1.85           -1.8
          -1.75           -1.7          -1.65
           -1.6          -1.55           -1.5
          -1.45           -1.4          -1.35
           -1.3          -1.25           -1.2
          -1.15           -1.1          -1.05
             -1          -0.95           -0.9
          -0.85           -0.8          -0.75
           -0.7          -0.65           -0.6
          -0.55           -0.5          -0.45
           -0.4          -0.35           -0.3
          -0.25           -0.2          -0.15
           -0.1          -0.05              0
           0.05            0.1           0.15
            0.2           0.25            0.3
           0.35            0.4           0.45
            0.5           0.55            0.6
           0.65            0.7           0.75
            0.8           0.85            0.9
           0.95              1           1.05
            1.1           1.15            1.2
           1.25            1.3           1.35
            1.4           1.45            1.5
           1.55            1.6           1.65
            1.7           1.75            1.8
           1.85            1.9           1.95
              2           2.05            2.1
           2.15            2.2           2.25
            2.3           2.35            2.4
           2.45            2.5           2.55
            2.6           2.65            2.7
           2.75            2.8           2.85
            2.9           2.95              3
           3.05            3.1           3.15
            3.2           3.25            3.3
           3.35            3.4           3.45
            3.5           3.55            3.6
           3.65            3.7           3.75
            3.8           3.85            3.9
           3.95              4           4.05
            4.1           4.15            4.2
           4.25            4.3           4.35
            4.4           4.45            4.5
           4.55            4.6           4.65
            4.7           4.75            4.8
           4.85            4.9           4.95
              5           5.05            5.1
           5.15            5.2           5.25
            5.3           5.35            5.4
           5.45            5.5           5.55
            5.6           5.65            5.7
           5.75            5.8           5.85
            5.9           5.95              6
           6.05            6.1           6.15
            6.2           6.25            6.3
           6.35            6.4           6.45
            6.5           6.55            6.6
           6.65            6.7           6.75
            6.8           6.85            6.9
           6.95              7           7.05
            7.1           7.15            7.2