Title=Realfreq_1
VARIABLES= "x", "fr_1(x,t)"
ZONE F=BLOCK, T="0", I=400
            -10          -9.95           -9.9
          -9.85           -9.8          -9.75
           -9.7          -9.65           -9.6
          -9.55           -9.5          -9.45
           -9.4          -9.35           -9.3
          -9.25           -9.2          -9.15
           -9.1          -9.05             -9
          -8.95           -8.9          -8.85
           -8.8          -8.75           -8.7
          -8.65           -8.6          -8.55
           -8.5          -8.45           -8.4
          -8.35           -8.3          -8.25
           -8.2          -8.15           -8.1
          -8.05             -8          -7.95
           -7.9          -7.85           -7.8
          -7.75           -7.7          -7.65
           -7.6          -7.55           -7.5
          -7.45           -7.4          -7.35
           -7.3          -7.25           -7.2
          -7.15           -7.1          -7.05
             -7          -6.95           -6.9
          -6.85           -6.8          -6.75
           -6.7          -6.65           -6.6
          -6.55           -6.5          -6.45
           -6.4          -6.35           -6.3
          -6.25           -6.2          -6.15
           -6.1          -6.05             -6
          -5.95           -5.9          -5.85
           -5.8          -5.75           -5.7
          -5.65           -5.6          -5.55
           -5.5          -5.45           -5.4
          -5.35           -5.3          -5.25
           -5.2          -5.15           -5.1
          -5.05             -5          -4.95
           -4.9          -4.85           -4.8
          -4.75           -4.7          -4.65
           -4.6          -4.55           -4.5
          -4.45           -4.4          -4.35
           -4.3          -4.25           -4.2
          -4.15           -4.1          -4.05
             -4          -3.95           -3.9
          -3.85           -3.8          -3.75
           -3.7          -3.65           -3.6
          -3.55           -3.5          -3.45
           -3.4          -3.35           -3.3
          -3.25           -3.2          -3.15
           -3.1          -3.05             -3
          -2.95           -2.9          -2.85
           -2.8          -2.75           -2.7
          -2.65           -2.6          -2.55
           -2.5          -2.45           -2.4
          -2.35           -2.3          -2.25
           -2.2          -2.15           -2.1
          -2.05             -2          -1.95
           -1.9          -1.85           -1.8
          -1.75           -1.7          -1.65
           -1.6          -1.55           -1.5
          -1.45           -1.4          -1.35
           -1.3          -1.25           -1.2
          -1.15           -1.1          -1.05
             -1          -0.95           -0.9
          -0.85           -0.8          -0.75
           -0.7          -0.65           -0.6
          -0.55           -0.5          -0.45
           -0.4          -0.35           -0.3
          -0.25           -0.2          -0.15
           -0.1          -0.05              0
           0.05            0.1           0.15
            0.2           0.25            0.3
           0.35            0.4           0.45
            0.5           0.55            0.6
           0.65            0.7           0.75
            0.8           0.85            0.9
           0.95              1           1.05
            1.1           1.15            1.2
           1.25            1.3           1.35
            1.4           1.45            1.5
           1.55            1.6           1.65
            1.7           1.75            1.8
           1.85            1.9           1.95
              2           2.05            2.1
           2.15            2.2           2.25
            2.3           2.35            2.4
           2.45            2.5           2.55
            2.6           2.65            2.7
           2.75            2.8           2.85
            2.9           2.95              3
           3.05            3.1           3.15
            3.2           3.25            3.3
           3.35            3.4           3.45
            3.5           3.55            3.6
           3.65            3.7           3.75
            3.8           3.85            3.9
           3.95              4           4.05
            4.1           4.15            4.2
           4.25            4.3           4.35
            4.4           4.45            4.5
           4.55            4.6           4.65
            4.7           4.75            4.8
           4.85            4.9           4.95
              5           5.05            5.1
           5.15            5.2           5.25
            5.3           5.35            5.4
           5.45            5.5           5.55
            5.6           5.65            5.7
           5.75            5.8           5.85
            5.9           5.95              6
           6.05            6.1           6.15
            6.2           6.25            6.3
           6.35            6.4           6.45
            6.5           6.55            6.6
           6.65            6.7           6.75
            6.8           6.85            6.9
           6.95              7           7.05
            7.1           7.15            7.2
           7.25            7.3           7.35
            7.4           7.45            7.5
           7.55            7.6           7.65
            7.7           7.75            7.8
           7.85            7.9           7.95
              8           8.05            8.1
           8.15            8.2           8.25
            8.3           8.35            8.4
           8.45            8.5           8.55
            8.6           8.65            8.7
           8.75            8.8           8.85
            8.9           8.95              9
           9.05            9.1           9.15
            9.2           9.25            9.3
           9.35            9.4           9.45
            9.5           9.55            9.6
           9.65            9.7           9.75
            9.8           9.85            9.9
           9.95
     -0.0001816   -0.000190911
   -0.000200699   -0.000210989   -0.000221806
   -0.000233179   -0.000245134   -0.000257702
   -0.000270915   -0.000284805   -0.000299407
   -0.000314758   -0.000330896   -0.000347862
   -0.000365697   -0.000384447   -0.000404158
   -0.000424879   -0.000446663   -0.000469564
   -0.000493639   -0.000518949   -0.000545556
   -0.000573527   -0.000602932   -0.000633845
   -0.000666343   -0.000700507   -0.000736423
    -0.00077418   -0.000813873   -0.000855602
   -0.000899469   -0.000945586   -0.000994067
    -0.00104503    -0.00109861    -0.00115494
    -0.00121416    -0.00127641    -0.00134185
    -0.00141065    -0.00148297    -0.00155901
    -0.00163894    -0.00172297    -0.00181131
    -0.00190418     -0.0020018    -0.00210444
    -0.00221234    -0.00232576    -0.00244501
    -0.00257037    -0.00270215    -0.00284069
    -0.00298634    -0.00313945    -0.00330041
    -0.00346963    -0.00364752    -0.00383453
    -0.00403113    -0.00423781    -0.00445508
     -0.0046835    -0.00492363    -0.00517606
    -0.00544144    -0.00572043    -0.00601372
    -0.00632204    -0.00664617    -0.00698692
    -0.00734514    -0.00772173    -0.00811762
    -0.00853381    -0.00897134    -0.00943129
    -0.00991483     -0.0104231     -0.0109575
     -0.0115193     -0.0121099     -0.0127307
     -0.0133834     -0.0140695     -0.0147908
     -0.0155491     -0.0163463     -0.0171843
     -0.0180652     -0.0189913     -0.0199649
     -0.0209883     -0.0220642     -0.0231953
     -0.0243843     -0.0256342     -0.0269481
     -0.0283294     -0.0297814     -0.0313078
     -0.0329123      -0.034599     -0.0363721
     -0.0382359     -0.0401952     -0.0422547
     -0.0444195     -0.0466952     -0.0490872
     -0.0516015     -0.0542443     -0.0570221
     -0.0599419     -0.0630107     -0.0662361
     -0.0696261     -0.0731889     -0.0769332
     -0.0808682     -0.0850034     -0.0893489
      -0.093915     -0.0987129      -0.103754
       -0.10905      -0.114615       -0.12046
      -0.126599      -0.133048       -0.13982
      -0.146932      -0.154399      -0.162238
      -0.170467      -0.179103      -0.188166
      -0.197673      -0.207646      -0.218104
      -0.229068      -0.240558      -0.252598
      -0.265207      -0.278408      -0.292222
      -0.306672      -0.321777      -0.337558
      -0.354034      -0.371224      -0.389142
      -0.407802      -0.427217      -0.447391
      -0.468329      -0.490029      -0.512481
      -0.535671      -0.559574      -0.584157
      -0.609374      -0.635166       -0.66146
      -0.688166      -0.715175      -0.742354
       -0.76955      -0.796581      -0.823239
      -0.849283       -0.87444      -0.898404
      -0.920832      -0.941346      -0.959533
      -0.974946      -0.987109      -0.995519
      -0.999658      -0.998994         -0.993
      -0.981165      -0.963006      -0.938092
      -0.906057      -0.866626      -0.819628
      -0.765023      -0.702911      -0.633548
      -0.557356      -0.474919      -0.386985
      -0.294451      -0.198343      -0.099792
              0       0.099792       0.198343
       0.294451       0.386985       0.474919
       0.557356       0.633548       0.702911
       0.765023       0.819628       0.866626
       0.906057       0.938092       0.963006
       0.981165          0.993       0.998994
       0.999658       0.995519       0.987109
       0.974946       0.959533       0.941346
       0.920832       0.898404        0.87444
       0.849283       0.823239       0.796581
        0.76955       0.742354       0.715175
       0.688166        0.66146       0.635166
       0.609374       0.584157       0.559574
       0.535671       0.512481       0.490029
       0.468329       0.447391       0.427217
       0.407802       0.389142       0.371224
       0.354034       0.337558       0.321777
       0.306672       0.292222       0.278408
       0.265207       0.252598       0.240558
       0.229068       0.218104       0.207646
       0.197673       0.188166       0.179103
       0.170467       0.162238       0.154399
       0.146932        0.13982       0.133048
       0.126599        0.12046       0.114615
        0.10905       0.103754      0.0987129
       0.093915      0.0893489      0.0850034
      0.0808682      0.0769332      0.0731889
      0.0696261      0.0662361      0.0630107
      0.0599419      0.0570221      0.0542443
      0.0516015      0.0490872      0.0466952
      0.0444195      0.0422547      0.0401952
      0.0382359      0.0363721       0.034599
      0.0329123      0.0313078      0.0297814
      0.0283294      0.0269481      0.0256342
      0.0243843      0.0231953      0.0220642
      0.0209883      0.0199649      0.0189913
      0.0180652      0.0171843      0.0163463
      0.0155491      0.0147908      0.0140695
      0.0133834      0.0127307      0.0121099
      0.0115193      0.0109575      0.0104231
     0.00991483     0.00943129     0.00897134
     0.00853381     0.00811762     0.00772173
     0.00734514     0.00698692     0.00664617
     0.00632204     0.00601372     0.00572043
     0.00544144     0.00517606     0.00492363
      0.0046835     0.00445508     0.00423781
     0.00403113     0.00383453     0.00364752
     0.00346963     0.00330041     0.00313945
     0.00298634     0.00284069     0.00270215
     0.00257037     0.00244501     0.00232576
     0.00221234     0.00210444      0.0020018
     0.00190418     0.00181131     0.00172297
     0.00163894     0.00155901     0.00148297
     0.00141065     0.00134185     0.00127641
     0.00121416     0.00115494     0.00109861
     0.00104503    0.000994067    0.000945586
    0.000899469    0.000855602    0.000813873
     0.00077418    0.000736423    0.000700507
    0.000666343    0.000633845    0.000602932
    0.000573527    0.000545556    0.000518949
    0.000493639    0.000469564    0.000446663
    0.000424879    0.000404158    0.000384447
    0.000365697    0.000347862    0.000330896
    0.000314758    0.000299407    0.000284805
    0.000270915    0.000257702    0.000245134
    0.000233179    0.000221806    0.000210989
    0.000200699    0.000190911
ZONE F=BLOCK, T="0.0628319", I=400
            -10          -9.95           -9.9
          -9.85           -9.8          -9.75
           -9.7          -9.65           -9.6
          -9.55           -9.5          -9.45
           -9.4          -9.35           -9.3
          -9.25           -9.2          -9.15
           -9.1          -9.05             -9
          -8.95           -8.9          -8.85
           -8.8          -8.75           -8.7
          -8.65           -8.6          -8.55
           -8.5          -8.45           -8.4
          -8.35           -8.3          -8.25
           -8.2          -8.15           -8.1
          -8.05             -8          -7.95
           -7.9          -7.85           -7.8
          -7.75           -7.7          -7.65
           -7.6          -7.55           -7.5
          -7.45           -7.4          -7.35
           -7.3          -7.25           -7.2
          -7.15           -7.1          -7.05
             -7          -6.95           -6.9
          -6.85           -6.8          -6.75
           -6.7          -6.65           -6.6
          -6.55           -6.5          -6.45
           -6.4          -6.35           -6.3
          -6.25           -6.2          -6.15
           -6.1          -6.05             -6
          -5.95           -5.9          -5.85
           -5.8          -5.75           -5.7
          -5.65           -5.6          -5.55
           -5.5          -5.45           -5.4
          -5.35           -5.3          -5.25
           -5.2          -5.15           -5.1
          -5.05             -5          -4.95
           -4.9          -4.85           -4.8
          -4.75           -4.7          -4.65
           -4.6          -4.55           -4.5
          -4.45           -4.4          -4.35
           -4.3          -4.25           -4.2
          -4.15           -4.1          -4.05
             -4          -3.95           -3.9
          -3.85           -3.8          -3.75
           -3.7          -3.65           -3.6
          -3.55           -3.5          -3.45
           -3.4          -3.35           -3.3
          -3.25           -3.2          -3.15
           -3.1          -3.05             -3
          -2.95           -2.9          -2.85
           -2.8          -2.75           -2.7
          -2.65           -2.6          -2.55
           -2.5          -2.45           -2.4
          -2.35           -2.3          -2.25
           -2.2          -2.15           -2.1
          -2.05             -2          -1.95
           -1.9          -1.85           -1.8
          -1.75           -1.7          -1.65
           -1.6          -1.55           -1.5
          -1.45           -1.4          -1.35
           -1.3          -1.25           -1.2
          -1.15           -1.1          -1.05
             -1          -0.95           -0.9
          -0.85           -0.8          -0.75
           -0.7          -0.65           -0.6
          -0.55           -0.5          -0.45
           -0.4          -0.35           -0.3
          -0.25           -0.2          -0.15
           -0.1          -0.05              0
           0.05            0.1           0.15
            0.2           0.25            0.3
           0.35            0.4           0.45
            0.5           0.55            0.6
           0.65            0.7           0.75
            0.8           0.85            0.9
           0.95              1           1.05
            1.1           1.15            1.2
           1.25            1.3           1.35
            1.4           1.45            1.5
           1.55            1.6           1.65
            1.7           1.75            1.8
           1.85            1.9           1.95
              2           2.05            2.1
           2.15            2.2           2.25
            2.3           2.35            2.4
           2.45            2.5           2.55
            2.6           2.65            2.7
           2.75            2.8           2.85
            2.9           2.95              3
           3.05            3.1           3.15
            3.2           3.25            3.3
           3.35            3.4           3.45
            3.5           3.55            3.6
           3.65            3.7           3.75
            3.8           3.85            3.9
           3.95              4           4.05
            4.1           4.15            4.2
           4.25            4.3           4.35
            4.4           4.45            4.5
           4.55            4.6           4.65
            4.7           4.75            4.8
           4.85            4.9           4.95
              5           5.05            5.1
           5.15            5.2           5.25
            5.3           5.35            5.4
           5.45            5.5           5.55
            5.6           5.65            5.7
           5.75            5.8           5.85
            5.9           5.95              6
           6.05            6.1           6.15
            6.2           6.25            6.3
           6.35            6.4           6.45
            6.5           6.55            6.6
           6.65            6.7           6.75
            6.8           6.85            6.9
           6.95              7           7.05
            7.1           7.15            7.2
           7.25            7.3           7.35
            7.4           7.45            7.5
           7.55            7.6           7.65
            7.7           7.75            7.8
           7.85            7.9           7.95
              8           8.05            8.1
           8.15            8.2           8.25
            8.3           8.35            8.4
           8.45            8.5           8.55
            8.6           8.65            8.7
           8.75            8.8           8.85
            8.9           8.95              9
           9.05            9.1           9.15
            9.2           9.25            9.3
           9.35            9.4           9.45
            9.5           9.55            9.6
           9.65            9.7           9.75
            9.8           9.85            9.9
           9.95
   -0.000176564   -0.000185616
   -0.000195133   -0.000205138   -0.000215656
   -0.000226712   -0.000238336   -0.000250556
   -0.000263402   -0.000276907   -0.000291105
    -0.00030603    -0.00032172   -0.000338215
   -0.000355556   -0.000373786    -0.00039295
   -0.000413097   -0.000434277   -0.000456543
    -0.00047995   -0.000504558   -0.000530427
   -0.000557623   -0.000586213   -0.000616268
   -0.000647865   -0.000681082   -0.000716002
   -0.000752712   -0.000791304   -0.000831875
   -0.000874526   -0.000919364   -0.000966501
    -0.00101605    -0.00106815    -0.00112291
    -0.00118049    -0.00124101    -0.00130464
    -0.00137153    -0.00144185    -0.00151577
    -0.00159349    -0.00167519    -0.00176108
    -0.00185137    -0.00194629    -0.00204608
    -0.00215099    -0.00226127    -0.00237721
    -0.00249909    -0.00262722    -0.00276192
    -0.00290353    -0.00305239    -0.00320889
    -0.00337341    -0.00354637     -0.0037282
    -0.00391934    -0.00412029    -0.00433154
    -0.00455362    -0.00478709    -0.00503253
    -0.00529055     -0.0055618    -0.00584695
    -0.00614673    -0.00646187    -0.00679317
    -0.00714146     -0.0075076    -0.00789252
    -0.00829716    -0.00872255    -0.00916975
    -0.00963988     -0.0101341     -0.0106537
     -0.0111999     -0.0117741     -0.0123777
     -0.0130123     -0.0136794     -0.0143807
     -0.0151179      -0.015893     -0.0167077
     -0.0175643     -0.0184647     -0.0194112
     -0.0204063     -0.0214524     -0.0225521
     -0.0237081     -0.0249233     -0.0262008
     -0.0275438     -0.0289555     -0.0304396
     -0.0319996     -0.0336396     -0.0353635
     -0.0371756     -0.0390805     -0.0410829
     -0.0431878     -0.0454003     -0.0477259
     -0.0501705       -0.05274     -0.0554409
     -0.0582796     -0.0612633     -0.0643993
     -0.0676953     -0.0711593     -0.0747998
     -0.0786257     -0.0826462     -0.0868712
     -0.0913107     -0.0959756      -0.100877
      -0.106026      -0.111436      -0.117119
      -0.123089      -0.129358      -0.135943
      -0.142857      -0.150117      -0.157739
       -0.16574      -0.174137      -0.182948
      -0.192192      -0.201888      -0.212056
      -0.222715      -0.233888      -0.245593
      -0.257852      -0.270687      -0.284119
      -0.298167      -0.312854      -0.328197
      -0.344217      -0.360929      -0.378351
      -0.396494       -0.41537      -0.434985
      -0.455342       -0.47644       -0.49827
      -0.520817      -0.544057      -0.567958
      -0.592475      -0.617552      -0.643117
      -0.669083      -0.695342      -0.721768
       -0.74821      -0.774492       -0.80041
      -0.825732      -0.850191      -0.873491
      -0.895297      -0.915242      -0.932924
       -0.94791      -0.959736      -0.967913
      -0.971936      -0.971291      -0.965464
      -0.953957      -0.936301      -0.912078
      -0.880932      -0.842593        -0.7969
      -0.743809      -0.683419       -0.61598
        -0.5419      -0.461749      -0.376254
      -0.286286      -0.192843     -0.0970247
              0      0.0970247       0.192843
       0.286286       0.376254       0.461749
         0.5419        0.61598       0.683419
       0.743809         0.7969       0.842593
       0.880932       0.912078       0.936301
       0.953957       0.965464       0.971291
       0.971936       0.967913       0.959736
        0.94791       0.932924       0.915242
       0.895297       0.873491       0.850191
       0.825732        0.80041       0.774492
        0.74821       0.721768       0.695342
       0.669083       0.643117       0.617552
       0.592475       0.567958       0.544057
       0.520817        0.49827        0.47644
       0.455342       0.434985        0.41537
       0.396494       0.378351       0.360929
       0.344217       0.328197       0.312854
       0.298167       0.284119       0.270687
       0.257852       0.245593       0.233888
       0.222715       0.212056       0.201888
       0.192192       0.182948       0.174137
        0.16574       0.157739       0.150117
       0.142857       0.135943       0.129358
       0.123089       0.117119       0.111436
       0.106026       0.100877      0.0959756
      0.0913107      0.0868712      0.0826462
      0.0786257      0.0747998      0.0711593
      0.0676953      0.0643993      0.0612633
      0.0582796      0.0554409        0.05274
      0.0501705      0.0477259      0.0454003
      0.0431878      0.0410829      0.0390805
      0.0371756      0.0353635      0.0336396
      0.0319996      0.0304396      0.0289555
      0.0275438      0.0262008      0.0249233
      0.0237081      0.0225521      0.0214524
      0.0204063      0.0194112      0.0184647
      0.0175643      0.0167077       0.015893
      0.0151179      0.0143807      0.0136794
      0.0130123      0.0123777      0.0117741
      0.0111999      0.0106537      0.0101341
     0.00963988     0.00916975     0.00872255
     0.00829716     0.00789252      0.0075076
     0.00714146     0.00679317     0.00646187
     0.00614673     0.00584695      0.0055618
     0.00529055     0.00503253     0.00478709
     0.00455362     0.00433154     0.00412029
     0.00391934      0.0037282     0.00354637
     0.00337341     0.00320889     0.00305239
     0.00290353     0.00276192     0.00262722
     0.00249909     0.00237721     0.00226127
     0.00215099     0.00204608     0.00194629
     0.00185137     0.00176108     0.00167519
     0.00159349     0.00151577     0.00144185
     0.00137153     0.00130464     0.00124101
     0.00118049     0.00112291     0.00106815
     0.00101605    0.000966501    0.000919364
    0.000874526    0.000831875    0.000791304
    0.000752712    0.000716002    0.000681082
    0.000647865    0.000616268    0.000586213
    0.000557623    0.000530427    0.000504558
     0.00047995    0.000456543    0.000434277
    0.000413097     0.00039295    0.000373786
    0.000355556    0.000338215     0.00032172
     0.00030603    0.000291105    0.000276907
    0.000263402    0.000250556    0.000238336
    0.000226712    0.000215656    0.000205138
    0.000195133    0.000185616
ZONE F=BLOCK, T="0.125664", I=400
            -10          -9.95           -9.9
          -9.85           -9.8          -9.75
           -9.7          -9.65           -9.6
          -9.55           -9.5          -9.45
           -9.4          -9.35           -9.3
          -9.25           -9.2          -9.15
           -9.1          -9.05             -9
          -8.95           -8.9          -8.85
           -8.8          -8.75           -8.7
          -8.65           -8.6          -8.55
           -8.5          -8.45           -8.4
          -8.35           -8.3          -8.25
           -8.2          -8.15           -8.1
          -8.05             -8          -7.95
           -7.9          -7.85           -7.8
          -7.75           -7.7          -7.65
           -7.6          -7.55           -7.5
          -7.45           -7.4          -7.35
           -7.3          -7.25           -7.2
          -7.15           -7.1          -7.05
             -7          -6.95           -6.9
          -6.85           -6.8          -6.75
           -6.7          -6.65           -6.6
          -6.55           -6.5          -6.45
           -6.4          -6.35           -6.3
          -6.25           -6.2          -6.15
           -6.1          -6.05             -6
          -5.95           -5.9          -5.85
           -5.8          -5.75           -5.7
          -5.65           -5.6          -5.55
           -5.5          -5.45           -5.4
          -5.35           -5.3          -5.25
           -5.2          -5.15           -5.1
          -5.05             -5          -4.95
           -4.9          -4.85           -4.8
          -4.75           -4.7          -4.65
           -4.6          -4.55           -4.5
          -4.45           -4.4          -4.35
           -4.3          -4.25           -4.2
          -4.15           -4.1          -4.05
             -4          -3.95           -3.9
          -3.85           -3.8          -3.75
           -3.7          -3.65           -3.6
          -3.55           -3.5          -3.45
           -3.4          -3.35           -3.3
          -3.25           -3.2          -3.15
           -3.1          -3.05             -3
          -2.95           -2.9          -2.85
           -2.8          -2.75           -2.7
          -2.65           -2.6          -2.55
           -2.5          -2.45           -2.4
          -2.35           -2.3          -2.25
           -2.2          -2.15           -2.1
          -2.05             -2          -1.95
           -1.9          -1.85           -1.8
          -1.75           -1.7          -1.65
           -1.6          -1.55           -1.5
          -1.45           -1.4          -1.35
           -1.3          -1.25           -1.2
          -1.15           -1.1          -1.05
             -1          -0.95           -0.9
          -0.85           -0.8          -0.75
           -0.7          -0.65           -0.6
          -0.55           -0.5          -0.45
           -0.4          -0.35           -0.3
          -0.25           -0.2          -0.15
           -0.1          -0.05              0
           0.05            0.1           0.15
            0.2           0.25            0.3
           0.35            0.4           0.45
            0.5           0.55            0.6
           0.65            0.7           0.75
            0.8           0.85            0.9
           0.95              1           1.05
            1.1           1.15            1.2
           1.25            1.3           1.35
            1.4           1.45            1.5
           1.55            1.6           1.65
            1.7           1.75            1.8
           1.85            1.9           1.95
              2           2.05            2.1
           2.15            2.2           2.25
            2.3           2.35            2.4
           2.45            2.5           2.55
            2.6           2.65            2.7
           2.75            2.8           2.85
            2.9           2.95              3
           3.05            3.1           3.15
            3.2           3.25            3.3
           3.35            3.4           3.45
            3.5           3.55            3.6
           3.65            3.7           3.75
            3.8           3.85            3.9
           3.95              4           4.05
            4.1           4.15            4.2
           4.25            4.3           4.35
            4.4           4.45            4.5
           4.55            4.6           4.65
            4.7           4.75            4.8
           4.85            4.9           4.95
              5           5.05            5.1
           5.15            5.2           5.25
            5.3           5.35            5.4
           5.45            5.5           5.55
            5.6           5.65            5.7
           5.75            5.8           5.85
            5.9           5.95              6
           6.05            6.1           6.15
            6.2           6.25            6.3
           6.35            6.4           6.45
            6.5           6.55            6.6
           6.65            6.7           6.75
            6.8           6.85            6.9
           6.95              7           7.05
            7.1           7.15            7.2