title = "SUGAR TECPLOT"
variables = "X", "Y", "Z", "Var"
 zone T = "Mesh", I= 400, J=1, K=1, DATAPACKING=BLOCK
 VARLOCATION = ([4] = CELLCENTERED)

              0           0.05            0.1           0.15            0.2           0.25            0.3           0.35            0.4           0.45            0.5           0.55            0.6           0.65            0.7           0.75            0.8           0.85            0.9           0.95              1           1.05            1.1           1.15            1.2           1.25            1.3           1.35            1.4           1.45            1.5           1.55            1.6           1.65            1.7           1.75            1.8           1.85            1.9           1.95              2           2.05            2.1           2.15            2.2           2.25            2.3           2.35            2.4           2.45            2.5           2.55            2.6           2.65            2.7           2.75            2.8           2.85            2.9           2.95              3           3.05            3.1           3.15            3.2           3.25            3.3           3.35            3.4           3.45            3.5           3.55            3.6           3.65            3.7           3.75            3.8           3.85            3.9           3.95              4           4.05            4.1           4.15            4.2           4.25            4.3           4.35            4.4           4.45            4.5           4.55            4.6           4.65            4.7           4.75            4.8           4.85            4.9           4.95              5
           5.05            5.1           5.15            5.2           5.25            5.3           5.35            5.4           5.45            5.5           5.55            5.6           5.65            5.7           5.75            5.8           5.85            5.9           5.95              6           6.05            6.1           6.15            6.2           6.25            6.3           6.35            6.4           6.45            6.5           6.55            6.6           6.65            6.7           6.75            6.8           6.85            6.9           6.95              7           7.05            7.1           7.15            7.2           7.25            7.3           7.35            7.4           7.45            7.5           7.55            7.6           7.65            7.7           7.75            7.8           7.85            7.9           7.95              8           8.05            8.1           8.15            8.2           8.25            8.3           8.35            8.4           8.45            8.5           8.55            8.6           8.65            8.7           8.75            8.8           8.85            8.9           8.95              9           9.05            9.1           9.15            9.2           9.25            9.3           9.35            9.4           9.45            9.5           9.55            9.6           9.65            9.7           9.75            9.8           9.85            9.9           9.95             10
          10.05           10.1          10.15           10.2          10.25           10.3          10.35           10.4          10.45           10.5          10.55           10.6          10.65           10.7          10.75           10.8          10.85           10.9          10.95             11          11.05           11.1          11.15           11.2          11.25           11.3          11.35           11.4          11.45           11.5          11.55           11.6          11.65           11.7          11.75           11.8          11.85           11.9          11.95             12          12.05           12.1          12.15           12.2          12.25           12.3          12.35           12.4          12.45           12.5          12.55           12.6          12.65           12.7          12.75           12.8          12.85           12.9          12.95             13          13.05           13.1          13.15           13.2          13.25           13.3          13.35           13.4          13.45           13.5          13.55           13.6          13.65           13.7          13.75           13.8          13.85           13.9          13.95             14          14.05           14.1          14.15           14.2          14.25           14.3          14.35           14.4          14.45           14.5          14.55           14.6          14.65           14.7          14.75           14.8          14.85           14.9          14.95             15
          15.05           15.1          15.15           15.2          15.25           15.3          15.35           15.4          15.45           15.5          15.55           15.6          15.65           15.7          15.75           15.8          15.85           15.9          15.95             16          16.05           16.1          16.15           16.2          16.25           16.3          16.35           16.4          16.45           16.5          16.55           16.6          16.65           16.7          16.75           16.8          16.85           16.9          16.95             17          17.05           17.1          17.15           17.2          17.25           17.3          17.35           17.4          17.45           17.5          17.55           17.6          17.65           17.7          17.75           17.8          17.85           17.9          17.95             18          18.05           18.1          18.15           18.2          18.25           18.3          18.35           18.4          18.45           18.5          18.55           18.6          18.65           18.7          18.75           18.8          18.85           18.9          18.95             19          19.05           19.1          19.15           19.2          19.25           19.3          19.35           19.4          19.45           19.5          19.55           19.6          19.65           19.7          19.75           19.8          19.85           19.9          19.95

              0              0              0              0              0              0              0              0              0              0              0              0              0              0              0              0              0              0              0              0              0              0              0              0              0              0              0              0              0              0              0              0              0              0              0              0              0              0              0              0              0              0              0              0              0              0              0              0              0              0              0              0              0              0              0              0              0              0              0              0              0              0              0              0              0              0              0              0              0              0              0              0              0              0              0              0              0              0              0              0              0              0              0              0              0              0              0              0              0              0              0              0              0              0              0              0              0              0              0              0              0
              0              0              0              0              0              0              0              0              0              0              0              0              0              0              0              0              0              0              0              0              0              0              0              0              0              0              0              0              0              0              0              0              0              0              0              0              0              0              0              0              0              0              0              0              0              0              0              0              0              0              0              0              0              0              0              0              0              0              0              0              0              0              0              0              0              0              0              0              0              0              0              0              0              0              0              0              0              0              0              0              0              0              0              0              0              0              0              0              0              0              0              0              0              0              0              0              0              0              0              0
              0              0              0              0              0              0              0              0              0              0              0              0              0              0              0              0              0              0              0              0              0              0              0              0              0              0              0              0              0              0              0              0              0              0              0              0              0              0              0              0              0              0              0              0              0              0              0              0              0              0              0              0              0              0              0              0              0              0              0              0              0              0              0              0              0              0              0              0              0              0              0              0              0              0              0              0              0              0              0              0              0              0              0              0              0              0              0              0              0              0              0              0              0              0              0              0              0              0              0              0
              0              0              0              0              0              0              0              0              0              0              0              0              0              0              0              0              0              0              0              0              0              0              0              0              0              0              0              0              0              0              0              0              0              0              0              0              0              0              0              0              0              0              0              0              0              0              0              0              0              0              0              0              0              0              0              0              0              0              0              0              0              0              0              0              0              0              0              0              0              0              0              0              0              0              0              0              0              0              0              0              0              0              0              0              0              0              0              0              0              0              0              0              0              0              0              0              0              0              0

              0              0              0              0              0              0              0              0              0              0              0              0              0              0              0              0              0              0              0              0              0              0              0              0              0              0              0              0              0              0              0              0              0              0              0              0              0              0              0              0              0              0              0              0              0              0              0              0              0              0              0              0              0              0              0              0              0              0              0              0              0              0              0              0              0              0              0              0              0              0              0              0              0              0              0              0              0              0              0              0              0              0              0              0              0              0              0              0              0              0              0              0              0              0              0              0              0              0              0              0              0
              0              0              0              0              0              0              0              0              0              0              0              0              0              0              0              0              0              0              0              0              0              0              0              0              0              0              0              0              0              0              0              0              0              0              0              0              0              0              0              0              0              0              0              0              0              0              0              0              0              0              0              0              0              0              0              0              0              0              0              0              0              0              0              0              0              0              0              0              0              0              0              0              0              0              0              0              0              0              0              0              0              0              0              0              0              0              0              0              0              0              0              0              0              0              0              0              0              0              0              0
              0              0              0              0              0              0              0              0              0              0              0              0              0              0              0              0              0              0              0              0              0              0              0              0              0              0              0              0              0              0              0              0              0              0              0              0              0              0              0              0              0              0              0              0              0              0              0              0              0              0              0              0              0              0              0              0              0              0              0              0              0              0              0              0              0              0              0              0              0              0              0              0              0              0              0              0              0              0              0              0              0              0              0              0              0              0              0              0              0              0              0              0              0              0              0              0              0              0              0              0
              0              0              0              0              0              0              0              0              0              0              0              0              0              0              0              0              0              0              0              0              0              0              0              0              0              0              0              0              0              0              0              0              0              0              0              0              0              0              0              0              0              0              0              0              0              0              0              0              0              0              0              0              0              0              0              0              0              0              0              0              0              0              0              0              0              0              0              0              0              0              0              0              0              0              0              0              0              0              0              0              0              0              0              0              0              0              0              0              0              0              0              0              0              0              0              0              0              0              0

        -0.000200044          -0.0002103        -0.000221083
        -0.000232418        -0.000244334        -0.000256861
        -0.000270031        -0.000283876         -0.00029843
        -0.000313731        -0.000329816        -0.000346726
        -0.000364503        -0.000383191        -0.000402838
        -0.000423492        -0.000445204         -0.00046803
        -0.000492026        -0.000517253        -0.000543773
        -0.000571652        -0.000600961        -0.000631772
        -0.000664164        -0.000698215        -0.000734013
        -0.000771646        -0.000811208        -0.000852798
         -0.00089652        -0.000942484        -0.000990805
          -0.0010416           -0.001095         -0.00115114
         -0.00121016          -0.0012722         -0.00133742
         -0.00140599         -0.00147807         -0.00155385
          -0.0016335         -0.00171725         -0.00180528
         -0.00189782         -0.00199511         -0.00209739
          -0.0022049         -0.00231792         -0.00243674
         -0.00256164         -0.00269294         -0.00283096
         -0.00297606         -0.00312858         -0.00328892
         -0.00345746         -0.00363464         -0.00382088
         -0.00401665         -0.00422244         -0.00443876
         -0.00466614         -0.00490515         -0.00515637
         -0.00542043         -0.00569798          -0.0059897
          -0.0062963         -0.00661855         -0.00695723
         -0.00731316         -0.00768722         -0.00808032
          -0.0084934         -0.00892746         -0.00938356
         -0.00986277          -0.0103663          -0.0108952
          -0.0114508          -0.0120345          -0.0126475
          -0.0132914          -0.0139674          -0.0146773
          -0.0154226          -0.0162049           -0.017026
          -0.0178876          -0.0187916          -0.0197398
          -0.0207342          -0.0217767          -0.0228694
          -0.0240144          -0.0252137          -0.0264694
          -0.0277836          -0.0291584          -0.0305959
           -0.032098          -0.0336667          -0.0353038
           -0.037011          -0.0387897          -0.0406413
          -0.0425668          -0.0445669          -0.0466417
          -0.0487913          -0.0510148          -0.0533111
          -0.0556781          -0.0581129          -0.0606121
          -0.0631708          -0.0657834          -0.0684431
          -0.0711415          -0.0738694          -0.0766157
          -0.0793682          -0.0821132          -0.0848355
          -0.0875186          -0.0901447           -0.092695
          -0.0951497          -0.0974886           -0.099691
           -0.101736           -0.103605           -0.105277
           -0.106735           -0.107963           -0.108948
           -0.109678           -0.110146           -0.110345
           -0.110276            -0.10994           -0.109341
           -0.108488           -0.107393            -0.10607
           -0.104534           -0.102804           -0.100899
          -0.0988389          -0.0966451          -0.0943381
          -0.0919387          -0.0894666          -0.0869408
          -0.0843794          -0.0817988          -0.0792145
          -0.0766401          -0.0740879          -0.0715689
          -0.0690924          -0.0666662          -0.0642972
          -0.0619907          -0.0597508          -0.0575807
          -0.0554824          -0.0534572          -0.0515053
          -0.0496263          -0.0478189          -0.0460812
          -0.0444108          -0.0428047          -0.0412593
          -0.0397705           -0.038334           -0.036945
          -0.0355984          -0.0342888          -0.0330108
          -0.0317586          -0.0305267          -0.0293096
          -0.0281019          -0.0268988          -0.0256957
           -0.024489          -0.0232754          -0.0220529
          -0.0208203          -0.0195776          -0.0183259
          -0.0170674          -0.0158057          -0.0145452
          -0.0132913          -0.0120503          -0.0108287
         -0.00963367         -0.00847226         -0.00735137
         -0.00627742         -0.00525623         -0.00429275
           -0.003391         -0.00255401         -0.00178365
          -0.0010808        -0.000445283         0.000123923
         0.000628731           0.0010717          0.00145594
          0.00178501          0.00206277          0.00229321
          0.00248045          0.00262857          0.00274157
           0.0028233           0.0028774          0.00290732
          0.00291625          0.00290713           0.0028826
           0.0028451          0.00279681          0.00273963
          0.00267532          0.00260536          0.00253106
           0.0024536          0.00237393          0.00229292
          0.00221128          0.00212962          0.00204848
          0.00196825           0.0018893          0.00181191
          0.00173629          0.00166264          0.00159109
          0.00152173          0.00145462          0.00138981
          0.00132732          0.00126716          0.00120931
          0.00115373           0.0011004          0.00104926
          0.00100026         0.000953359         0.000908485
         0.000865565         0.000824553         0.000785377
         0.000747967         0.000712256         0.000678179
         0.000645674         0.000614675         0.000585119
         0.000556946           0.0005301         0.000504514
         0.000480143         0.000456923         0.000434812
         0.000413754         0.000393702         0.000374612
         0.000356436         0.000339133         0.000322664
         0.000306988         0.000292068         0.000277868
         0.000264355         0.000251494         0.000239258
         0.000227614         0.000216534         0.000205992
         0.000195961         0.000186417         0.000177337
         0.000168698          0.00016048         0.000152661
         0.000145221         0.000138144         0.000131412
         0.000125007         0.000118913         0.000113117
         0.000107603         0.000102357         9.73669e-05
         9.26207e-05         8.81041e-05         8.38086e-05
         7.97222e-05         7.58355e-05         7.21374e-05
         6.86201e-05          6.5274e-05         6.20911e-05
          5.9063e-05          5.6183e-05         5.34432e-05
         5.08369e-05         4.83578e-05         4.59997e-05
         4.37565e-05         4.16226e-05         3.95929e-05
         3.76619e-05         3.58252e-05         3.40781e-05
         3.24161e-05         3.08352e-05         2.93315e-05
         2.79009e-05         2.65402e-05         2.52459e-05
         2.40146e-05         2.28435e-05         2.17294e-05
         2.06697e-05         1.96616e-05         1.87027e-05
         1.77905e-05         1.69229e-05         1.60976e-05
         1.53125e-05         1.45657e-05         1.38553e-05
         1.31796e-05         1.25369e-05         1.19254e-05
         1.13438e-05         1.07906e-05         1.02643e-05
         9.76378e-06         9.28755e-06         8.83458e-06
         8.40375e-06         7.99389e-06         7.60397e-06
         7.23317e-06         6.88038e-06         6.54481e-06
         6.22565e-06         5.92202e-06         5.63318e-06
         5.35848e-06         5.09711e-06         4.84853e-06
         4.61205e-06         4.38713e-06         4.17317e-06
         3.96964e-06         3.77604e-06         3.59187e-06
         3.41671e-06         3.25007e-06         3.09155e-06
         2.94078e-06         2.79736e-06         2.66093e-06
         2.53116e-06         2.40771e-06         2.29029e-06
         2.17859e-06         2.07234e-06         1.97127e-06
         1.87512e-06         1.78368e-06         1.69668e-06
         1.61393e-06         1.53522e-06         1.46035e-06
         1.38913e-06         1.32138e-06         1.25693e-06
         1.19563e-06         1.13732e-06         1.08185e-06
         1.02909e-06         9.78901e-07         9.31161e-07
         8.85748e-07         8.42547e-07         8.01458e-07
          7.6237e-07        -0.000194358        -0.000204323
        -0.000214799        -0.000225812        -0.000237389
         -0.00024956        -0.000262355        -0.000275807
        -0.000289948        -0.000304813        -0.000320442
        -0.000336871        -0.000354142          -0.0003723
        -0.000391388        -0.000411455         -0.00043255
        -0.000454727        -0.000478041        -0.000502551
        -0.000528317        -0.000555404         -0.00058388
        -0.000613815        -0.000645286        -0.000678369
        -0.000713149        -0.000749713         -0.00078815
        -0.000828558        -0.000871038        -0.000915696
        -0.000962642           -0.001012         -0.00106388
         -0.00111842         -0.00117576         -0.00123604
         -0.00129941         -0.00136603         -0.00143606
         -0.00150968         -0.00158707         -0.00166844
         -0.00175397         -0.00184388          -0.0019384
         -0.00203777         -0.00214223         -0.00225204
         -0.00236748         -0.00248883          -0.0026164
          -0.0027505         -0.00289147         -0.00303966
         -0.00319544          -0.0033592         -0.00353133
         -0.00371228         -0.00390249         -0.00410243
         -0.00431261         -0.00453352         -0.00476574
         -0.00500982         -0.00526638         -0.00553604
         -0.00581948         -0.00611737         -0.00643047
         -0.00675952         -0.00710535         -0.00746878
         -0.00785071         -0.00825207         -0.00867381
         -0.00911695         -0.00958256          -0.0100718
          -0.0105857          -0.0111256          -0.0116927
          -0.0122883          -0.0129139          -0.0135708
          -0.0142606          -0.0149847          -0.0157449
          -0.0165427          -0.0173799          -0.0182583
          -0.0191797           -0.020146          -0.0211591
           -0.022221          -0.0233337          -0.0244992
          -0.0257196          -0.0269968           -0.028333
          -0.0297302          -0.0311902           -0.032715
          -0.0343065          -0.0359661          -0.0376954
          -0.0394957           -0.041368          -0.0433129
          -0.0453308          -0.0474215          -0.0495845
          -0.0518186          -0.0541218          -0.0564915
          -0.0589242          -0.0614155            -0.06396
          -0.0665509          -0.0691806          -0.0718399
          -0.0745185          -0.0772044          -0.0798845
          -0.0825444           -0.085168          -0.0877383
          -0.0902373           -0.092646          -0.0949448
          -0.0971141          -0.0991339           -0.100985
            -0.10265            -0.10411           -0.105351
            -0.10636           -0.107126           -0.107642
           -0.107902           -0.107906           -0.107656
           -0.107156           -0.106415           -0.105444
           -0.104256           -0.102868           -0.101296
            -0.09956          -0.0976794          -0.0956743
          -0.0935649          -0.0913714          -0.0891129
          -0.0868079          -0.0844739          -0.0821268
          -0.0797814          -0.0774511          -0.0751476
          -0.0728813           -0.070661          -0.0684943
          -0.0663872          -0.0643445          -0.0623697
          -0.0604652          -0.0586321          -0.0568708
          -0.0551803           -0.053559          -0.0520042
          -0.0505123           -0.049079          -0.0476993
          -0.0463672          -0.0450762          -0.0438192
          -0.0425882           -0.041375          -0.0401709