title = "SUGAR TECPLOT"
variables = "X", "Y", "Z", "Var"
 zone T = "Mesh", I= 400, J=1, K=1, DATAPACKING=BLOCK
 VARLOCATION = ([4] = CELLCENTERED)

              0           0.05            0.1           0.15            0.2           0.25            0.3           0.35            0.4           0.45            0.5           0.55            0.6           0.65            0.7           0.75            0.8           0.85            0.9           0.95              1           1.05            1.1           1.15            1.2           1.25            1.3           1.35            1.4           1.45            1.5           1.55            1.6           1.65            1.7           1.75            1.8           1.85            1.9           1.95              2           2.05            2.1           2.15            2.2           2.25            2.3           2.35            2.4           2.45            2.5           2.55            2.6           2.65            2.7           2.75            2.8           2.85            2.9           2.95              3           3.05            3.1           3.15            3.2           3.25            3.3           3.35            3.4           3.45            3.5           3.55            3.6           3.65            3.7           3.75            3.8           3.85            3.9           3.95              4           4.05            4.1           4.15            4.2           4.25            4.3           4.35            4.4           4.45            4.5           4.55            4.6           4.65            4.7           4.75            4.8           4.85            4.9           4.95              5
           5.05            5.1           5.15            5.2           5.25            5.3           5.35            5.4           5.45            5.5           5.55            5.6           5.65            5.7           5.75            5.8           5.85            5.9           5.95              6           6.05            6.1           6.15            6.2           6.25            6.3           6.35            6.4           6.45            6.5           6.55            6.6           6.65            6.7           6.75            6.8           6.85            6.9           6.95              7           7.05            7.1           7.15            7.2           7.25            7.3           7.35            7.4           7.45            7.5           7.55            7.6           7.65            7.7           7.75            7.8           7.85            7.9           7.95              8           8.05            8.1           8.15            8.2           8.25            8.3           8.35            8.4           8.45            8.5           8.55            8.6           8.65            8.7           8.75            8.8           8.85            8.9           8.95              9           9.05            9.1           9.15            9.2           9.25            9.3           9.35            9.4           9.45            9.5           9.55            9.6           9.65            9.7           9.75            9.8           9.85            9.9           9.95             10
          10.05           10.1          10.15           10.2          10.25           10.3          10.35           10.4          10.45           10.5          10.55           10.6          10.65           10.7          10.75           10.8          10.85           10.9          10.95             11          11.05           11.1          11.15           11.2          11.25           11.3          11.35           11.4          11.45           11.5          11.55           11.6          11.65           11.7          11.75           11.8          11.85           11.9          11.95             12          12.05           12.1          12.15           12.2          12.25           12.3          12.35           12.4          12.45           12.5          12.55           12.6          12.65           12.7          12.75           12.8          12.85           12.9          12.95             13          13.05           13.1          13.15           13.2          13.25           13.3          13.35           13.4          13.45           13.5          13.55           13.6          13.65           13.7          13.75           13.8          13.85           13.9          13.95             14          14.05           14.1          14.15           14.2          14.25           14.3          14.35           14.4          14.45           14.5          14.55           14.6          14.65           14.7          14.75           14.8          14.85           14.9          14.95             15
          15.05           15.1          15.15           15.2          15.25           15.3          15.35           15.4          15.45           15.5          15.55           15.6          15.65           15.7          15.75           15.8          15.85           15.9          15.95             16          16.05           16.1          16.15           16.2          16.25           16.3          16.35           16.4          16.45           16.5          16.55           16.6          16.65           16.7          16.75           16.8          16.85           16.9          16.95             17          17.05           17.1          17.15           17.2          17.25           17.3          17.35           17.4          17.45           17.5          17.55           17.6          17.65           17.7          17.75           17.8          17.85           17.9          17.95             18          18.05           18.1          18.15           18.2          18.25           18.3          18.35           18.4          18.45           18.5          18.55           18.6          18.65           18.7          18.75           18.8          18.85           18.9          18.95             19          19.05           19.1          19.15           19.2          19.25           19.3          19.35           19.4          19.45           19.5          19.55           19.6          19.65           19.7          19.75           19.8          19.85           19.9          19.95

              0              0              0              0              0              0              0              0              0              0              0              0              0              0              0              0              0              0              0              0              0              0              0              0              0              0              0              0              0              0              0              0              0              0              0              0              0              0              0              0              0              0              0              0              0              0              0              0              0              0              0              0              0              0              0              0              0              0              0              0              0              0              0              0              0              0              0              0              0              0              0              0              0              0              0              0              0              0              0              0              0              0              0              0              0              0              0              0              0              0              0              0              0              0              0              0              0              0              0              0              0
              0              0              0              0              0              0              0              0              0              0              0              0              0              0              0              0              0              0              0              0              0              0              0              0              0              0              0              0              0              0              0              0              0              0              0              0              0              0              0              0              0              0              0              0              0              0              0              0              0              0              0              0              0              0              0              0              0              0              0              0              0              0              0              0              0              0              0              0              0              0              0              0              0              0              0              0              0              0              0              0              0              0              0              0              0              0              0              0              0              0              0              0              0              0              0              0              0              0              0              0
              0              0              0              0              0              0              0              0              0              0              0              0              0              0              0              0              0              0              0              0              0              0              0              0              0              0              0              0              0              0              0              0              0              0              0              0              0              0              0              0              0              0              0              0              0              0              0              0              0              0              0              0              0              0              0              0              0              0              0              0              0              0              0              0              0              0              0              0              0              0              0              0              0              0              0              0              0              0              0              0              0              0              0              0              0              0              0              0              0              0              0              0              0              0              0              0              0              0              0              0
              0              0              0              0              0              0              0              0              0              0              0              0              0              0              0              0              0              0              0              0              0              0              0              0              0              0              0              0              0              0              0              0              0              0              0              0              0              0              0              0              0              0              0              0              0              0              0              0              0              0              0              0              0              0              0              0              0              0              0              0              0              0              0              0              0              0              0              0              0              0              0              0              0              0              0              0              0              0              0              0              0              0              0              0              0              0              0              0              0              0              0              0              0              0              0              0              0              0              0

              0              0              0              0              0              0              0              0              0              0              0              0              0              0              0              0              0              0              0              0              0              0              0              0              0              0              0              0              0              0              0              0              0              0              0              0              0              0              0              0              0              0              0              0              0              0              0              0              0              0              0              0              0              0              0              0              0              0              0              0              0              0              0              0              0              0              0              0              0              0              0              0              0              0              0              0              0              0              0              0              0              0              0              0              0              0              0              0              0              0              0              0              0              0              0              0              0              0              0              0              0
              0              0              0              0              0              0              0              0              0              0              0              0              0              0              0              0              0              0              0              0              0              0              0              0              0              0              0              0              0              0              0              0              0              0              0              0              0              0              0              0              0              0              0              0              0              0              0              0              0              0              0              0              0              0              0              0              0              0              0              0              0              0              0              0              0              0              0              0              0              0              0              0              0              0              0              0              0              0              0              0              0              0              0              0              0              0              0              0              0              0              0              0              0              0              0              0              0              0              0              0
              0              0              0              0              0              0              0              0              0              0              0              0              0              0              0              0              0              0              0              0              0              0              0              0              0              0              0              0              0              0              0              0              0              0              0              0              0              0              0              0              0              0              0              0              0              0              0              0              0              0              0              0              0              0              0              0              0              0              0              0              0              0              0              0              0              0              0              0              0              0              0              0              0              0              0              0              0              0              0              0              0              0              0              0              0              0              0              0              0              0              0              0              0              0              0              0              0              0              0              0
              0              0              0              0              0              0              0              0              0              0              0              0              0              0              0              0              0              0              0              0              0              0              0              0              0              0              0              0              0              0              0              0              0              0              0              0              0              0              0              0              0              0              0              0              0              0              0              0              0              0              0              0              0              0              0              0              0              0              0              0              0              0              0              0              0              0              0              0              0              0              0              0              0              0              0              0              0              0              0              0              0              0              0              0              0              0              0              0              0              0              0              0              0              0              0              0              0              0              0

        -1.59499e-06        -1.67675e-06        -1.76276e-06
        -1.85312e-06        -1.94814e-06        -2.04799e-06
        -2.15292e-06        -2.26343e-06        -2.37942e-06
        -2.50139e-06        -2.62959e-06         -2.7645e-06
        -2.90619e-06        -3.05517e-06        -3.21198e-06
        -3.37659e-06        -3.54963e-06        -3.73157e-06
        -3.92306e-06         -4.1241e-06        -4.33554e-06
        -4.55787e-06        -4.79156e-06        -5.03726e-06
         -5.2955e-06        -5.56704e-06        -5.85232e-06
        -6.15245e-06        -6.46788e-06        -6.79943e-06
        -7.14809e-06        -7.51462e-06        -7.89989e-06
        -8.30497e-06        -8.73077e-06        -9.17846e-06
        -9.64898e-06        -1.01437e-05        -1.06637e-05
        -1.12103e-05        -1.17852e-05        -1.23896e-05
        -1.30247e-05        -1.36927e-05        -1.43947e-05
        -1.51327e-05        -1.59084e-05        -1.67237e-05
         -1.7582e-05        -1.84834e-05        -1.94311e-05
        -2.04266e-05        -2.14744e-05        -2.25751e-05
        -2.37322e-05        -2.49497e-05        -2.62296e-05
        -2.75731e-05        -2.89884e-05        -3.04742e-05
        -3.20354e-05        -3.36786e-05         -3.5404e-05
        -3.72206e-05        -3.91292e-05        -4.11341e-05
        -4.32439e-05        -4.54611e-05        -4.77906e-05
        -5.02424e-05        -5.28178e-05        -5.55258e-05
        -5.83719e-05        -6.13649e-05        -6.45109e-05
        -6.78191e-05        -7.12946e-05        -7.49509e-05
        -7.87936e-05        -8.28345e-05          -8.708e-05
        -9.15459e-05        -9.62388e-05        -0.000101174
        -0.000106359        -0.000111813        -0.000117547
        -0.000123572        -0.000129908        -0.000136563
        -0.000143567        -0.000150931        -0.000158662
        -0.000166796        -0.000175348        -0.000184331
        -0.000193792        -0.000203719        -0.000214155
        -0.000225141         -0.00023668        -0.000248816
        -0.000261564        -0.000274975        -0.000289065
        -0.000303878        -0.000319446        -0.000335833
        -0.000353028        -0.000371109        -0.000390137
         -0.00041012        -0.000431128        -0.000453206
        -0.000476421         -0.00050083        -0.000526455
        -0.000553415        -0.000581748        -0.000611512
        -0.000642811        -0.000675686        -0.000710267
         -0.00074657        -0.000784738        -0.000824841
         -0.00086699        -0.000911249        -0.000957785
         -0.00100663         -0.00105797          -0.0011119
         -0.00116854         -0.00122801         -0.00129047
         -0.00135607         -0.00142491         -0.00149719
         -0.00157304         -0.00165263         -0.00173613
         -0.00182373         -0.00191558         -0.00201188
         -0.00211279         -0.00221854         -0.00232927
         -0.00244522         -0.00256655         -0.00269346
         -0.00282612         -0.00296474         -0.00310944
          -0.0032604         -0.00341779         -0.00358168
         -0.00375219         -0.00392939         -0.00411328
         -0.00430387         -0.00450106         -0.00470473
         -0.00491467         -0.00513056         -0.00535206
         -0.00557858         -0.00580954         -0.00604408
         -0.00628128         -0.00652001         -0.00675887
         -0.00699627         -0.00723041         -0.00745915
         -0.00768011         -0.00789057         -0.00808755
         -0.00826772         -0.00842746         -0.00856283
         -0.00866965         -0.00874352         -0.00877988
         -0.00877404          -0.0087214         -0.00861746
         -0.00845797         -0.00823915         -0.00795779
         -0.00761146         -0.00719869          -0.0067191
         -0.00617358         -0.00556438         -0.00489518
         -0.00417116         -0.00339884         -0.00258612
         -0.00174202        -0.000876461        -9.10863e-10
         0.000876462          0.00174203          0.00258613
          0.00339884          0.00417116          0.00489518
          0.00556438          0.00617357          0.00671911
           0.0071987          0.00761147          0.00795779
          0.00823915          0.00845797          0.00861744
           0.0087214          0.00877402          0.00877986
          0.00874353          0.00866965          0.00856282
          0.00842746          0.00826773          0.00808755
          0.00789057           0.0076801          0.00745915
          0.00723041          0.00699628          0.00675887
             0.00652          0.00628129          0.00604408
          0.00580954          0.00557858          0.00535205
          0.00513058          0.00491467          0.00470473
          0.00450105          0.00430388          0.00411328
          0.00392939          0.00375219          0.00358168
          0.00341779          0.00326041          0.00310944
          0.00296473          0.00282612          0.00269346
          0.00256655          0.00244522          0.00232928
          0.00221854           0.0021128          0.00201187
          0.00191558          0.00182373          0.00173615
          0.00165264          0.00157304          0.00149719
          0.00142492          0.00135607          0.00129049
          0.00122803          0.00116854          0.00111191
          0.00105798          0.00100665         0.000957776
         0.000911258         0.000866983         0.000824845
          0.00078474         0.000746573         0.000710256
         0.000675695         0.000642809         0.000611518
         0.000581743         0.000553414         0.000526462
         0.000500818         0.000476422         0.000453209
         0.000431127         0.000410118         0.000390132
         0.000371117         0.000353029         0.000335822
         0.000319452         0.000303878         0.000289065
         0.000274972         0.000261566         0.000248813
         0.000236682         0.000225142         0.000214164
         0.000203722         0.000193788         0.000184338
         0.000175349         0.000166798         0.000158665
         0.000150927         0.000143567         0.000136566
         0.000129906         0.000123571         0.000117545
         0.000111813          0.00010636         0.000101173
         9.62386e-05         9.15452e-05         8.70807e-05
         8.28338e-05         7.87942e-05         7.49514e-05
         7.12961e-05          6.7819e-05         6.45114e-05
         6.13653e-05         5.83725e-05         5.55257e-05
         5.28177e-05         5.02418e-05         4.77915e-05
         4.54608e-05         4.32435e-05         4.11346e-05
         3.91285e-05         3.72202e-05          3.5405e-05
         3.36782e-05         3.20357e-05         3.04733e-05
         2.89871e-05         2.75734e-05         2.62286e-05
         2.49495e-05         2.37327e-05         2.25752e-05
         2.14742e-05         2.04269e-05         1.94307e-05
          1.8483e-05         1.75816e-05         1.67241e-05
         1.59085e-05         1.51326e-05         1.43946e-05
         1.36926e-05         1.30248e-05         1.23896e-05
         1.17853e-05         1.12106e-05         1.06638e-05
         1.01437e-05         9.64898e-06         9.17841e-06
         8.73077e-06         8.30496e-06         7.89993e-06
         7.51463e-06         7.14815e-06         6.79953e-06
          6.4679e-06         6.15247e-06          5.8524e-06
         5.56699e-06         5.29548e-06         5.03722e-06
         4.79154e-06         4.55787e-06         4.33557e-06
         4.12413e-06         3.92298e-06         3.73167e-06
         3.54967e-06         3.37654e-06         3.21187e-06
         3.05522e-06         2.90623e-06         2.76449e-06
         2.62966e-06         2.50141e-06         2.37941e-06
         2.26337e-06         2.15299e-06         2.04798e-06
         1.94809e-06         1.85309e-06         1.76271e-06
         1.67675e-06        -4.55803e-06         -4.7917e-06
        -5.03744e-06        -5.29568e-06        -5.56721e-06
        -5.85262e-06        -6.15261e-06        -6.46819e-06
        -6.79976e-06        -7.14839e-06        -7.51484e-06
         -7.9002e-06        -8.30523e-06        -8.73102e-06
        -9.17882e-06        -9.64935e-06         -1.0144e-05
         -1.0664e-05         -1.1211e-05        -1.17857e-05
        -1.23899e-05        -1.30252e-05         -1.3693e-05
        -1.43951e-05        -1.51331e-05        -1.59091e-05
        -1.67246e-05        -1.75822e-05        -1.84836e-05
        -1.94312e-05        -2.04275e-05        -2.14749e-05
         -2.2576e-05        -2.37335e-05        -2.49503e-05
        -2.62296e-05        -2.75744e-05         -2.8988e-05
        -3.04743e-05        -3.20367e-05        -3.36794e-05
        -3.54063e-05        -3.72214e-05        -3.91299e-05
        -4.11363e-05        -4.32451e-05        -4.54624e-05
        -4.77928e-05        -5.02441e-05        -5.28201e-05
        -5.55284e-05        -5.83747e-05         -6.1368e-05
        -6.45139e-05        -6.78216e-05        -7.12994e-05
        -7.49557e-05        -7.87975e-05        -8.28391e-05
        -8.70861e-05        -9.15497e-05        -9.62439e-05
        -0.000101177        -0.000106366         -0.00011182
        -0.000117552        -0.000123579        -0.000129915
        -0.000136575        -0.000143579         -0.00015094
        -0.000158679        -0.000166813        -0.000175366
        -0.000184357         -0.00019381        -0.000203745
        -0.000214192        -0.000225173        -0.000236719
        -0.000248854        -0.000261614        -0.000275026
        -0.000289126        -0.000303948        -0.000319532
        -0.000335914        -0.000353135        -0.000371242
        -0.000390267         -0.00041028        -0.000431315
        -0.000453422        -0.000476666        -0.000501102
        -0.000526786          -0.0005538        -0.000582182
        -0.000612022        -0.000643398        -0.000676375
        -0.000711048        -0.000747488        -0.000785802
        -0.000826074        -0.000868407        -0.000912907
        -0.000959704         -0.00100887         -0.00106055
          -0.0011149         -0.00117202         -0.00123205
         -0.00129515         -0.00136149         -0.00143122
         -0.00150448         -0.00158152         -0.00166248
         -0.00174756         -0.00183699         -0.00193096
         -0.00202974         -0.00213352         -0.00224259
         -0.00235719         -0.00247763         -0.00260414
         -0.00273709         -0.00287673         -0.00302344
         -0.00317754          -0.0033394         -0.00350938
         -0.00368787          -0.0038753         -0.00407206
          -0.0042786         -0.00449537         -0.00472281
         -0.00496145         -0.00521176         -0.00547425
         -0.00574944         -0.00603784         -0.00634003
          -0.0066565         -0.00698784         -0.00733457
         -0.00769724         -0.00807637         -0.00847247
         -0.00888602         -0.00931744         -0.00976719
          -0.0102356          -0.0107228          -0.0112292
          -0.0117547          -0.0122994          -0.0128629
           -0.013445          -0.0140449          -0.0146619
          -0.0152949          -0.0159422          -0.0166022
          -0.0172725          -0.0179504          -0.0186326
          -0.0193152          -0.0199936          -0.0206627
          -0.0213164          -0.0219479          -0.0225493
          -0.0231123          -0.0236271          -0.0240836
          -0.0244705          -0.0247758          -0.0249869