title = "SUGAR TECPLOT"
variables = "X", "Y", "Z", "Var"
 zone T = "Mesh", I= 400, J=1, K=1, DATAPACKING=BLOCK
 VARLOCATION = ([4] = CELLCENTERED)

              0           0.05            0.1           0.15            0.2           0.25            0.3           0.35            0.4           0.45            0.5           0.55            0.6           0.65            0.7           0.75            0.8           0.85            0.9           0.95              1           1.05            1.1           1.15            1.2           1.25            1.3           1.35            1.4           1.45            1.5           1.55            1.6           1.65            1.7           1.75            1.8           1.85            1.9           1.95              2           2.05            2.1           2.15            2.2           2.25            2.3           2.35            2.4           2.45            2.5           2.55            2.6           2.65            2.7           2.75            2.8           2.85            2.9           2.95              3           3.05            3.1           3.15            3.2           3.25            3.3           3.35            3.4           3.45            3.5           3.55            3.6           3.65            3.7           3.75            3.8           3.85            3.9           3.95              4           4.05            4.1           4.15            4.2           4.25            4.3           4.35            4.4           4.45            4.5           4.55            4.6           4.65            4.7           4.75            4.8           4.85            4.9           4.95              5
           5.05            5.1           5.15            5.2           5.25            5.3           5.35            5.4           5.45            5.5           5.55            5.6           5.65            5.7           5.75            5.8           5.85            5.9           5.95              6           6.05            6.1           6.15            6.2           6.25            6.3           6.35            6.4           6.45            6.5           6.55            6.6           6.65            6.7           6.75            6.8           6.85            6.9           6.95              7           7.05            7.1           7.15            7.2           7.25            7.3           7.35            7.4           7.45            7.5           7.55            7.6           7.65            7.7           7.75            7.8           7.85            7.9           7.95              8           8.05            8.1           8.15            8.2           8.25            8.3           8.35            8.4           8.45            8.5           8.55            8.6           8.65            8.7           8.75            8.8           8.85            8.9           8.95              9           9.05            9.1           9.15            9.2           9.25            9.3           9.35            9.4           9.45            9.5           9.55            9.6           9.65            9.7           9.75            9.8           9.85            9.9           9.95             10
          10.05           10.1          10.15           10.2          10.25           10.3          10.35           10.4          10.45           10.5          10.55           10.6          10.65           10.7          10.75           10.8          10.85           10.9          10.95             11          11.05           11.1          11.15           11.2          11.25           11.3          11.35           11.4          11.45           11.5          11.55           11.6          11.65           11.7          11.75           11.8          11.85           11.9          11.95             12          12.05           12.1          12.15           12.2          12.25           12.3          12.35           12.4          12.45           12.5          12.55           12.6          12.65           12.7          12.75           12.8          12.85           12.9          12.95             13          13.05           13.1          13.15           13.2          13.25           13.3          13.35           13.4          13.45           13.5          13.55           13.6          13.65           13.7          13.75           13.8          13.85           13.9          13.95             14          14.05           14.1          14.15           14.2          14.25           14.3          14.35           14.4          14.45           14.5          14.55           14.6          14.65           14.7          14.75           14.8          14.85           14.9          14.95             15
          15.05           15.1          15.15           15.2          15.25           15.3          15.35           15.4          15.45           15.5          15.55           15.6          15.65           15.7          15.75           15.8          15.85           15.9          15.95             16          16.05           16.1          16.15           16.2          16.25           16.3          16.35           16.4          16.45           16.5          16.55           16.6          16.65           16.7          16.75           16.8          16.85           16.9          16.95             17          17.05           17.1          17.15           17.2          17.25           17.3          17.35           17.4          17.45           17.5          17.55           17.6          17.65           17.7          17.75           17.8          17.85           17.9          17.95             18          18.05           18.1          18.15           18.2          18.25           18.3          18.35           18.4          18.45           18.5          18.55           18.6          18.65           18.7          18.75           18.8          18.85           18.9          18.95             19          19.05           19.1          19.15           19.2          19.25           19.3          19.35           19.4          19.45           19.5          19.55           19.6          19.65           19.7          19.75           19.8          19.85           19.9          19.95

              0              0              0              0              0              0              0              0              0              0              0              0              0              0              0              0              0              0              0              0              0              0              0              0              0              0              0              0              0              0              0              0              0              0              0              0              0              0              0              0              0              0              0              0              0              0              0              0              0              0              0              0              0              0              0              0              0              0              0              0              0              0              0              0              0              0              0              0              0              0              0              0              0              0              0              0              0              0              0              0              0              0              0              0              0              0              0              0              0              0              0              0              0              0              0              0              0              0              0              0              0
              0              0              0              0              0              0              0              0              0              0              0              0              0              0              0              0              0              0              0              0              0              0              0              0              0              0              0              0              0              0              0              0              0              0              0              0              0              0              0              0              0              0              0              0              0              0              0              0              0              0              0              0              0              0              0              0              0              0              0              0              0              0              0              0              0              0              0              0              0              0              0              0              0              0              0              0              0              0              0              0              0              0              0              0              0              0              0              0              0              0              0              0              0              0              0              0              0              0              0              0
              0              0              0              0              0              0              0              0              0              0              0              0              0              0              0              0              0              0              0              0              0              0              0              0              0              0              0              0              0              0              0              0              0              0              0              0              0              0              0              0              0              0              0              0              0              0              0              0              0              0              0              0              0              0              0              0              0              0              0              0              0              0              0              0              0              0              0              0              0              0              0              0              0              0              0              0              0              0              0              0              0              0              0              0              0              0              0              0              0              0              0              0              0              0              0              0              0              0              0              0
              0              0              0              0              0              0              0              0              0              0              0              0              0              0              0              0              0              0              0              0              0              0              0              0              0              0              0              0              0              0              0              0              0              0              0              0              0              0              0              0              0              0              0              0              0              0              0              0              0              0              0              0              0              0              0              0              0              0              0              0              0              0              0              0              0              0              0              0              0              0              0              0              0              0              0              0              0              0              0              0              0              0              0              0              0              0              0              0              0              0              0              0              0              0              0              0              0              0              0

              0              0              0              0              0              0              0              0              0              0              0              0              0              0              0              0              0              0              0              0              0              0              0              0              0              0              0              0              0              0              0              0              0              0              0              0              0              0              0              0              0              0              0              0              0              0              0              0              0              0              0              0              0              0              0              0              0              0              0              0              0              0              0              0              0              0              0              0              0              0              0              0              0              0              0              0              0              0              0              0              0              0              0              0              0              0              0              0              0              0              0              0              0              0              0              0              0              0              0              0              0
              0              0              0              0              0              0              0              0              0              0              0              0              0              0              0              0              0              0              0              0              0              0              0              0              0              0              0              0              0              0              0              0              0              0              0              0              0              0              0              0              0              0              0              0              0              0              0              0              0              0              0              0              0              0              0              0              0              0              0              0              0              0              0              0              0              0              0              0              0              0              0              0              0              0              0              0              0              0              0              0              0              0              0              0              0              0              0              0              0              0              0              0              0              0              0              0              0              0              0              0
              0              0              0              0              0              0              0              0              0              0              0              0              0              0              0              0              0              0              0              0              0              0              0              0              0              0              0              0              0              0              0              0              0              0              0              0              0              0              0              0              0              0              0              0              0              0              0              0              0              0              0              0              0              0              0              0              0              0              0              0              0              0              0              0              0              0              0              0              0              0              0              0              0              0              0              0              0              0              0              0              0              0              0              0              0              0              0              0              0              0              0              0              0              0              0              0              0              0              0              0
              0              0              0              0              0              0              0              0              0              0              0              0              0              0              0              0              0              0              0              0              0              0              0              0              0              0              0              0              0              0              0              0              0              0              0              0              0              0              0              0              0              0              0              0              0              0              0              0              0              0              0              0              0              0              0              0              0              0              0              0              0              0              0              0              0              0              0              0              0              0              0              0              0              0              0              0              0              0              0              0              0              0              0              0              0              0              0              0              0              0              0              0              0              0              0              0              0              0              0

         0.000154327          0.00016224         0.000170558
         0.000179303         0.000188496         0.000198161
         0.000208321         0.000219001         0.000230229
         0.000242034         0.000254443         0.000267488
         0.000281202          0.00029562         0.000310777
         0.000326711         0.000343461         0.000361071
         0.000379583         0.000399045         0.000419503
         0.000441012         0.000463623         0.000487393
         0.000512381          0.00053865         0.000566269
           0.0005953         0.000625822         0.000657908
         0.000691638         0.000727098         0.000764375
         0.000803564          0.00084476         0.000888071
         0.000933601         0.000981466          0.00103179
          0.00108468          0.00114029          0.00119875
           0.0012602          0.00132481          0.00139272
          0.00146412          0.00153917          0.00161808
          0.00170102          0.00178821          0.00187987
          0.00197624          0.00207753          0.00218402
          0.00229596          0.00241363          0.00253732
          0.00266736          0.00280404          0.00294772
          0.00309877          0.00325754          0.00342444
          0.00359986          0.00378425          0.00397809
          0.00418181          0.00439595          0.00462104
          0.00485759          0.00510623          0.00536754
          0.00564218          0.00593081          0.00623413
          0.00655287          0.00688783          0.00723978
          0.00760958          0.00799811          0.00840632
          0.00883514          0.00928561          0.00975877
           0.0102557           0.0107776           0.0113256
           0.0119009           0.0125049            0.013139
           0.0138043           0.0145024           0.0152348
           0.0160029           0.0168083           0.0176527
           0.0185374           0.0194644           0.0204353
           0.0214516            0.022515           0.0236271
           0.0247896           0.0260042           0.0272721
            0.028595           0.0299739             0.03141
           0.0329044           0.0344577           0.0360701
           0.0377422           0.0394732            0.041263
           0.0431098           0.0450121           0.0469676
            0.048973           0.0510244           0.0531175
           0.0552461           0.0574041           0.0595834
            0.061776           0.0639717           0.0661602
           0.0683295           0.0704676           0.0725605
            0.074595           0.0765561           0.0784297
           0.0802011           0.0818564           0.0833821
           0.0847658           0.0859967           0.0870655
           0.0879647           0.0886895           0.0892367
           0.0896061              0.0898            0.089823
           0.0896822           0.0893865           0.0889475
           0.0883777           0.0876912           0.0869031
           0.0860293           0.0850857           0.0840884
           0.0830536            0.081996           0.0809304
           0.0798705           0.0788285           0.0778159
           0.0768425           0.0759174           0.0750477
            0.074239           0.0734961           0.0728216
           0.0722173           0.0716829           0.0712173
           0.0708168           0.0704771           0.0701919
           0.0699533           0.0697514           0.0695746
           0.0694099           0.0692423           0.0690541
           0.0688268             0.06854           0.0681711
           0.0676964           0.0670906           0.0663278
           0.0653817           0.0642259           0.0628346
           0.0611841            0.059252           0.0570201
           0.0544737           0.0516036           0.0484063
           0.0448852           0.0410512           0.0369228
           0.0325263           0.0278959           0.0230725
           0.0181033           0.0130405          0.00793977
          0.00285854          -0.0021458         -0.00701753
          -0.0117041          -0.0161582          -0.0203384
          -0.0242102          -0.0277468          -0.0309288
          -0.0337452          -0.0361916          -0.0382704
          -0.0399904          -0.0413651          -0.0424123
          -0.0431521          -0.0436085          -0.0438054
          -0.0437682          -0.0435222          -0.0430926
          -0.0425031          -0.0417764          -0.0409339
          -0.0399953          -0.0389789          -0.0379008
          -0.0367758          -0.0356171          -0.0344361
           -0.033243          -0.0320464          -0.0308539
          -0.0296716          -0.0285053          -0.0273592
          -0.0262366          -0.0251409          -0.0240742
          -0.0230383          -0.0220341          -0.0210631
          -0.0201253          -0.0192212          -0.0183507
          -0.0175135          -0.0167092          -0.0159374
          -0.0151973          -0.0144882          -0.0138093
          -0.0131596          -0.0125385          -0.0119447
          -0.0113774          -0.0108357          -0.0103186
         -0.00982511         -0.00935434         -0.00890546
          -0.0084774         -0.00806933         -0.00768043
         -0.00730984         -0.00695679         -0.00662044
         -0.00630011         -0.00599509          -0.0057046
         -0.00542804         -0.00516465           -0.004914
         -0.00467538         -0.00444825         -0.00423207
         -0.00402634         -0.00383056         -0.00364421
         -0.00346691          -0.0032982         -0.00313765
          -0.0029849         -0.00283956         -0.00270126
          -0.0025697         -0.00244452         -0.00232543
         -0.00221212         -0.00210433         -0.00200178
         -0.00190423         -0.00181142         -0.00172313
         -0.00163913         -0.00155924         -0.00148322
         -0.00141091         -0.00134212         -0.00127669
         -0.00121444         -0.00115522          -0.0010989
         -0.00104532        -0.000994342         -0.00094586
         -0.00089974        -0.000855863        -0.000814125
        -0.000774429        -0.000736666        -0.000700737
        -0.000666563        -0.000634061        -0.000603139
        -0.000573722        -0.000545744        -0.000519127
        -0.000493814        -0.000469732        -0.000446824
        -0.000425032        -0.000404303        -0.000384585
        -0.000365831        -0.000347989        -0.000331018
        -0.000314874        -0.000299518         -0.00028491
        -0.000271015        -0.000257798        -0.000245225
        -0.000233265        -0.000221889        -0.000211068
        -0.000200773        -0.000190981        -0.000181667
        -0.000172807         -0.00016438        -0.000156363
        -0.000148738        -0.000141483        -0.000134582
        -0.000128019        -0.000121775        -0.000115837
        -0.000110188        -0.000104814        -9.97018e-05
        -9.48391e-05        -9.02133e-05        -8.58138e-05
        -8.16285e-05        -7.76475e-05        -7.38606e-05
        -7.02585e-05        -6.68321e-05        -6.35726e-05
        -6.04722e-05        -5.75226e-05        -5.47173e-05
        -5.20486e-05        -4.95105e-05        -4.70956e-05
        -4.47989e-05         -4.2614e-05        -4.05356e-05
        -3.85588e-05        -3.66781e-05        -3.48893e-05
        -3.31878e-05        -3.15692e-05        -3.00296e-05
        -2.85649e-05        -2.71717e-05        -2.58466e-05
        -2.45862e-05         -2.3387e-05        -2.22464e-05
        -2.11614e-05        -2.01294e-05        -1.91477e-05
        -1.82138e-05        -1.73256e-05        -1.64805e-05
        -1.56768e-05        -1.49122e-05        -1.41849e-05
        -1.34931e-05        -1.28351e-05        -1.22091e-05
        -1.16136e-05        -1.10472e-05        -1.05085e-05
        -9.99597e-06        -9.50846e-06         -9.0447e-06
        -8.60359e-06        -0.000143137        -0.000150475
        -0.000158191          -0.0001663        -0.000174827
         -0.00018379        -0.000193213         -0.00020312
        -0.000213535        -0.000224482        -0.000235991
        -0.000248091        -0.000260811        -0.000274183
        -0.000288241        -0.000303018        -0.000318555
        -0.000334886        -0.000352057        -0.000370107
        -0.000389083        -0.000409031        -0.000430002
        -0.000452049        -0.000475226        -0.000499591
        -0.000525203        -0.000552132        -0.000580438
        -0.000610198        -0.000641482         -0.00067437
        -0.000708946        -0.000745293        -0.000783505
        -0.000823673          -0.0008659        -0.000910293
        -0.000956959         -0.00100602          -0.0010576
         -0.00111182         -0.00116882         -0.00122873
         -0.00129173         -0.00135794         -0.00142756
         -0.00150074         -0.00157767         -0.00165854
         -0.00174356         -0.00183293         -0.00192688
         -0.00202564         -0.00212947         -0.00223861
         -0.00235334         -0.00247393         -0.00260072
           -0.002734         -0.00287408         -0.00302133
         -0.00317612         -0.00333883         -0.00350987
         -0.00368963          -0.0038786         -0.00407722
         -0.00428596         -0.00450539         -0.00473601
         -0.00497839         -0.00523311         -0.00550082
         -0.00578216         -0.00607781         -0.00638848
         -0.00671494         -0.00705796         -0.00741836
         -0.00779699         -0.00819479         -0.00861263
         -0.00905155          -0.0095125         -0.00999664
           -0.010505          -0.0110387          -0.0115991
          -0.0121872          -0.0128045          -0.0134522
          -0.0141317          -0.0148443          -0.0155917
          -0.0163751          -0.0171963          -0.0180566
          -0.0189575          -0.0199007          -0.0208878
          -0.0219202          -0.0229995          -0.0241271
          -0.0253046           -0.026533          -0.0278138
           -0.029148          -0.0305363          -0.0319797
          -0.0334788          -0.0350332          -0.0366433
          -0.0383079          -0.0400266          -0.0417976
          -0.0436187          -0.0454875          -0.0474002
          -0.0493526            -0.05134           -0.053356
          -0.0553944          -0.0574467          -0.0595049
           -0.061559          -0.0635987          -0.0656123
          -0.0675885          -0.0695139          -0.0713762
           -0.073162          -0.0748583          -0.0764526
          -0.0779326          -0.0792876          -0.0805075
           -0.081584           -0.082511          -0.0832833
          -0.0838994          -0.0843588          -0.0846639
          -0.0848191           -0.084831          -0.0847087
          -0.0844619          -0.0841031          -0.0836453
          -0.0831027          -0.0824896          -0.0818212
          -0.0811124          -0.0803776          -0.0796313
          -0.0788867          -0.0781563          -0.0774518
          -0.0767835          -0.0761605          -0.0755905
          -0.0750799          -0.0746342          -0.0742565
          -0.0739494          -0.0737131          -0.0735471
          -0.0734483          -0.0734134           -0.073436
          -0.0735084          -0.0736212           -0.073763
          -0.0739205          -0.0740781          -0.0742179
          -0.0743207          -0.0743644           -0.074325
          -0.0741768          -0.0738919          -0.0734416