title = "SUGAR TECPLOT"
variables = "X", "Y", "Z", "Var"
 zone T = "Mesh", I= 400, J=1, K=1, DATAPACKING=BLOCK
 VARLOCATION = ([4] = CELLCENTERED)

              0           0.05            0.1           0.15            0.2           0.25            0.3           0.35            0.4           0.45            0.5           0.55            0.6           0.65            0.7           0.75            0.8           0.85            0.9           0.95              1           1.05            1.1           1.15            1.2           1.25            1.3           1.35            1.4           1.45            1.5           1.55            1.6           1.65            1.7           1.75            1.8           1.85            1.9           1.95              2           2.05            2.1           2.15            2.2           2.25            2.3           2.35            2.4           2.45            2.5           2.55            2.6           2.65            2.7           2.75            2.8           2.85            2.9           2.95              3           3.05            3.1           3.15            3.2           3.25            3.3           3.35            3.4           3.45            3.5           3.55            3.6           3.65            3.7           3.75            3.8           3.85            3.9           3.95              4           4.05            4.1           4.15            4.2           4.25            4.3           4.35            4.4           4.45            4.5           4.55            4.6           4.65            4.7           4.75            4.8           4.85            4.9           4.95              5
           5.05            5.1           5.15            5.2           5.25            5.3           5.35            5.4           5.45            5.5           5.55            5.6           5.65            5.7           5.75            5.8           5.85            5.9           5.95              6           6.05            6.1           6.15            6.2           6.25            6.3           6.35            6.4           6.45            6.5           6.55            6.6           6.65            6.7           6.75            6.8           6.85            6.9           6.95              7           7.05            7.1           7.15            7.2           7.25            7.3           7.35            7.4           7.45            7.5           7.55            7.6           7.65            7.7           7.75            7.8           7.85            7.9           7.95              8           8.05            8.1           8.15            8.2           8.25            8.3           8.35            8.4           8.45            8.5           8.55            8.6           8.65            8.7           8.75            8.8           8.85            8.9           8.95              9           9.05            9.1           9.15            9.2           9.25            9.3           9.35            9.4           9.45            9.5           9.55            9.6           9.65            9.7           9.75            9.8           9.85            9.9           9.95             10
          10.05           10.1          10.15           10.2          10.25           10.3          10.35           10.4          10.45           10.5          10.55           10.6          10.65           10.7          10.75           10.8          10.85           10.9          10.95             11          11.05           11.1          11.15           11.2          11.25           11.3          11.35           11.4          11.45           11.5          11.55           11.6          11.65           11.7          11.75           11.8          11.85           11.9          11.95             12          12.05           12.1          12.15           12.2          12.25           12.3          12.35           12.4          12.45           12.5          12.55           12.6          12.65           12.7          12.75           12.8          12.85           12.9          12.95             13          13.05           13.1          13.15           13.2          13.25           13.3          13.35           13.4          13.45           13.5          13.55           13.6          13.65           13.7          13.75           13.8          13.85           13.9          13.95             14          14.05           14.1          14.15           14.2          14.25           14.3          14.35           14.4          14.45           14.5          14.55           14.6          14.65           14.7          14.75           14.8          14.85           14.9          14.95             15
          15.05           15.1          15.15           15.2          15.25           15.3          15.35           15.4          15.45           15.5          15.55           15.6          15.65           15.7          15.75           15.8          15.85           15.9          15.95             16          16.05           16.1          16.15           16.2          16.25           16.3          16.35           16.4          16.45           16.5          16.55           16.6          16.65           16.7          16.75           16.8          16.85           16.9          16.95             17          17.05           17.1          17.15           17.2          17.25           17.3          17.35           17.4          17.45           17.5          17.55           17.6          17.65           17.7          17.75           17.8          17.85           17.9          17.95             18          18.05           18.1          18.15           18.2          18.25           18.3          18.35           18.4          18.45           18.5          18.55           18.6          18.65           18.7          18.75           18.8          18.85           18.9          18.95             19          19.05           19.1          19.15           19.2          19.25           19.3          19.35           19.4          19.45           19.5          19.55           19.6          19.65           19.7          19.75           19.8          19.85           19.9          19.95

              0              0              0              0              0              0              0              0              0              0              0              0              0              0              0              0              0              0              0              0              0              0              0              0              0              0              0              0              0              0              0              0              0              0              0              0              0              0              0              0              0              0              0              0              0              0              0              0              0              0              0              0              0              0              0              0              0              0              0              0              0              0              0              0              0              0              0              0              0              0              0              0              0              0              0              0              0              0              0              0              0              0              0              0              0              0              0              0              0              0              0              0              0              0              0              0              0              0              0              0              0
              0              0              0              0              0              0              0              0              0              0              0              0              0              0              0              0              0              0              0              0              0              0              0              0              0              0              0              0              0              0              0              0              0              0              0              0              0              0              0              0              0              0              0              0              0              0              0              0              0              0              0              0              0              0              0              0              0              0              0              0              0              0              0              0              0              0              0              0              0              0              0              0              0              0              0              0              0              0              0              0              0              0              0              0              0              0              0              0              0              0              0              0              0              0              0              0              0              0              0              0
              0              0              0              0              0              0              0              0              0              0              0              0              0              0              0              0              0              0              0              0              0              0              0              0              0              0              0              0              0              0              0              0              0              0              0              0              0              0              0              0              0              0              0              0              0              0              0              0              0              0              0              0              0              0              0              0              0              0              0              0              0              0              0              0              0              0              0              0              0              0              0              0              0              0              0              0              0              0              0              0              0              0              0              0              0              0              0              0              0              0              0              0              0              0              0              0              0              0              0              0
              0              0              0              0              0              0              0              0              0              0              0              0              0              0              0              0              0              0              0              0              0              0              0              0              0              0              0              0              0              0              0              0              0              0              0              0              0              0              0              0              0              0              0              0              0              0              0              0              0              0              0              0              0              0              0              0              0              0              0              0              0              0              0              0              0              0              0              0              0              0              0              0              0              0              0              0              0              0              0              0              0              0              0              0              0              0              0              0              0              0              0              0              0              0              0              0              0              0              0

              0              0              0              0              0              0              0              0              0              0              0              0              0              0              0              0              0              0              0              0              0              0              0              0              0              0              0              0              0              0              0              0              0              0              0              0              0              0              0              0              0              0              0              0              0              0              0              0              0              0              0              0              0              0              0              0              0              0              0              0              0              0              0              0              0              0              0              0              0              0              0              0              0              0              0              0              0              0              0              0              0              0              0              0              0              0              0              0              0              0              0              0              0              0              0              0              0              0              0              0              0
              0              0              0              0              0              0              0              0              0              0              0              0              0              0              0              0              0              0              0              0              0              0              0              0              0              0              0              0              0              0              0              0              0              0              0              0              0              0              0              0              0              0              0              0              0              0              0              0              0              0              0              0              0              0              0              0              0              0              0              0              0              0              0              0              0              0              0              0              0              0              0              0              0              0              0              0              0              0              0              0              0              0              0              0              0              0              0              0              0              0              0              0              0              0              0              0              0              0              0              0
              0              0              0              0              0              0              0              0              0              0              0              0              0              0              0              0              0              0              0              0              0              0              0              0              0              0              0              0              0              0              0              0              0              0              0              0              0              0              0              0              0              0              0              0              0              0              0              0              0              0              0              0              0              0              0              0              0              0              0              0              0              0              0              0              0              0              0              0              0              0              0              0              0              0              0              0              0              0              0              0              0              0              0              0              0              0              0              0              0              0              0              0              0              0              0              0              0              0              0              0
              0              0              0              0              0              0              0              0              0              0              0              0              0              0              0              0              0              0              0              0              0              0              0              0              0              0              0              0              0              0              0              0              0              0              0              0              0              0              0              0              0              0              0              0              0              0              0              0              0              0              0              0              0              0              0              0              0              0              0              0              0              0              0              0              0              0              0              0              0              0              0              0              0              0              0              0              0              0              0              0              0              0              0              0              0              0              0              0              0              0              0              0              0              0              0              0              0              0              0

        -0.000202723        -0.000213116        -0.000224043
         -0.00023553        -0.000247606        -0.000260301
        -0.000273647        -0.000287677        -0.000302426
        -0.000317932        -0.000334233        -0.000351369
        -0.000369384        -0.000388323        -0.000408232
        -0.000429163        -0.000451166        -0.000474298
        -0.000498615        -0.000524179        -0.000551054
        -0.000579307        -0.000609008        -0.000640232
        -0.000673057        -0.000707565        -0.000743842
        -0.000781978         -0.00082207        -0.000864217
        -0.000908525        -0.000955105         -0.00100407
         -0.00105555         -0.00110967         -0.00116656
         -0.00122636         -0.00128924         -0.00135533
         -0.00142482         -0.00149786         -0.00157465
         -0.00165538         -0.00174024         -0.00182945
         -0.00192324         -0.00202183         -0.00212547
         -0.00223442         -0.00234896         -0.00246936
         -0.00259594         -0.00272899         -0.00286887
          -0.0030159         -0.00317047         -0.00333295
         -0.00350376          -0.0036833         -0.00387204
         -0.00407043         -0.00427897         -0.00449819
         -0.00472861         -0.00497081          -0.0052254
         -0.00549299         -0.00577425         -0.00606988
         -0.00638058         -0.00670714         -0.00705035
         -0.00741104          -0.0077901         -0.00818845
         -0.00860705         -0.00904692          -0.0095091
         -0.00999472          -0.0105049          -0.0110409
           -0.011604          -0.0121954          -0.0128166
           -0.013469          -0.0141541          -0.0148734
          -0.0156286          -0.0164214          -0.0172533
          -0.0181264          -0.0190423          -0.0200031
          -0.0210107           -0.022067          -0.0231741
          -0.0243342          -0.0255492          -0.0268214
          -0.0281528          -0.0295456          -0.0310018
          -0.0325234          -0.0341124          -0.0357706
          -0.0374997          -0.0393012          -0.0411764
          -0.0431262          -0.0451514          -0.0472521
          -0.0494282           -0.051679          -0.0540031
          -0.0563983          -0.0588619          -0.0613901
           -0.063978          -0.0666197          -0.0693083
          -0.0720353           -0.074791          -0.0775642
          -0.0803424          -0.0831115          -0.0858559
          -0.0885588          -0.0912019          -0.0937659
          -0.0962307          -0.0985755           -0.100779
            -0.10282           -0.104679           -0.106335
           -0.107771            -0.10897           -0.109917
           -0.110603           -0.111017           -0.111156
           -0.111017           -0.110603           -0.109917
            -0.10897           -0.107771           -0.106335
           -0.104679            -0.10282           -0.100779
          -0.0985755          -0.0962307          -0.0937659
          -0.0912019          -0.0885588           -0.085856
          -0.0831115          -0.0803425          -0.0775643
           -0.074791          -0.0720353          -0.0693083
          -0.0666198           -0.063978          -0.0613901
          -0.0588619          -0.0563983          -0.0540031
           -0.051679          -0.0494283          -0.0472521
          -0.0451514          -0.0431262          -0.0411764
          -0.0393013          -0.0374998          -0.0357707
          -0.0341124          -0.0325234          -0.0310018
          -0.0295456          -0.0281529          -0.0268214
          -0.0255493          -0.0243342          -0.0231742
           -0.022067          -0.0210107          -0.0200032
          -0.0190424          -0.0181264          -0.0172534
          -0.0164214          -0.0156287          -0.0148735
          -0.0141541           -0.013469          -0.0128166
          -0.0121954           -0.011604          -0.0110409
          -0.0105049         -0.00999471         -0.00950909
          -0.0090469         -0.00860704         -0.00818843
         -0.00779006         -0.00741101         -0.00705032
         -0.00670711         -0.00638054         -0.00606983
         -0.00577421         -0.00549294         -0.00522534
         -0.00497076         -0.00472854         -0.00449814
         -0.00427893         -0.00407037         -0.00387199
         -0.00368325         -0.00350372         -0.00333292
         -0.00317044         -0.00301586         -0.00286883
         -0.00272896          -0.0025959         -0.00246934
         -0.00234893         -0.00223438         -0.00212544
          -0.0020218         -0.00192321         -0.00182942
         -0.00174021         -0.00165536         -0.00157462
         -0.00149784          -0.0014248         -0.00135531
         -0.00128922         -0.00122635         -0.00116654
         -0.00110964         -0.00105553         -0.00100406
        -0.000955096        -0.000908508        -0.000864205
        -0.000822058        -0.000781963        -0.000743827
        -0.000707557        -0.000673045        -0.000640219
        -0.000609001        -0.000579301        -0.000551047
        -0.000524168        -0.000498604        -0.000474288
         -0.00045116        -0.000429154        -0.000408226
        -0.000388317        -0.000369374        -0.000351364
        -0.000334225        -0.000317928        -0.000302421
        -0.000287672        -0.000273642        -0.000260296
        -0.000247602        -0.000235526        -0.000224039
        -0.000213113        -0.000202719        -0.000192833
        -0.000183427        -0.000174483        -0.000165973
        -0.000157878        -0.000150179        -0.000142854
        -0.000135887         -0.00012926        -0.000122956
        -0.000116959        -0.000111255        -0.000105829
        -0.000100668        -9.57578e-05        -9.10877e-05
        -8.66452e-05        -8.24197e-05        -7.84001e-05
        -7.45763e-05        -7.09392e-05        -6.74799e-05
        -6.41881e-05        -6.10582e-05        -5.80801e-05
        -5.52478e-05        -5.25526e-05        -4.99899e-05
        -4.75515e-05        -4.52326e-05        -4.30265e-05
        -4.09285e-05        -3.89321e-05        -3.70334e-05
        -3.52275e-05        -3.35093e-05         -3.1875e-05
        -3.03204e-05        -2.88416e-05         -2.7435e-05
         -2.6097e-05        -2.48243e-05        -2.36135e-05
        -2.24619e-05        -2.13665e-05        -2.03243e-05
        -1.93332e-05        -1.83903e-05        -1.74934e-05
        -1.66402e-05        -1.58286e-05        -1.50567e-05
        -1.43223e-05        -1.36238e-05        -1.29594e-05
        -1.23274e-05        -1.17262e-05        -1.11543e-05
        -1.06102e-05        -1.00928e-05         -9.6006e-06
        -9.13233e-06        -8.68696e-06         -8.2633e-06
        -7.86032e-06         -7.4769e-06        -7.11226e-06
        -6.76537e-06        -6.43545e-06         -6.1216e-06
        -5.82298e-06        -5.53901e-06        -5.26894e-06
         -5.0119e-06        -4.76752e-06          -4.535e-06
        -4.31378e-06        -4.10341e-06        -3.90332e-06
        -3.71291e-06        -3.53189e-06         -3.3596e-06
        -3.19578e-06        -3.03989e-06        -2.89164e-06
        -2.75061e-06        -2.61646e-06        -2.48886e-06
        -2.36746e-06          -2.252e-06        -2.14219e-06
         -2.0377e-06        -1.93832e-06        -1.84379e-06
        -1.75386e-06        -1.66833e-06        -1.58696e-06
        -1.50956e-06        -1.43594e-06        -1.36591e-06
         -1.2993e-06        -1.23592e-06        -1.17566e-06
        -1.11832e-06        -1.06377e-06        -1.01189e-06
        -9.62538e-07        -9.15603e-07        -8.70948e-07
        -8.28467e-07        -7.88065e-07        -7.49627e-07
        -7.13068e-07        -6.78296e-07        -6.45212e-07
        -6.13741e-07        -5.83815e-07        -5.55338e-07
        -5.28254e-07        -0.000197237        -0.000207349
         -0.00021798        -0.000229156        -0.000240905
        -0.000253257        -0.000266241        -0.000279892
        -0.000294242        -0.000309328        -0.000325188
         -0.00034186        -0.000359388        -0.000377814
        -0.000397185        -0.000417549        -0.000438957
        -0.000461462        -0.000485122        -0.000509994
        -0.000536142         -0.00056363        -0.000592527
        -0.000622906        -0.000654843        -0.000688417
        -0.000723712        -0.000760816        -0.000799823
         -0.00084083        -0.000883939        -0.000929258
          -0.0009769         -0.00102698         -0.00107964
         -0.00113499         -0.00119318         -0.00125435
         -0.00131865         -0.00138626         -0.00145733
         -0.00153204         -0.00161058         -0.00169315
         -0.00177994         -0.00187119         -0.00196711
         -0.00206795         -0.00217396         -0.00228539
         -0.00240254         -0.00252569         -0.00265514
         -0.00279123         -0.00293429         -0.00308467
         -0.00324276         -0.00340894         -0.00358362
         -0.00376725         -0.00396028         -0.00416318
         -0.00437646         -0.00460064         -0.00483629
         -0.00508399         -0.00534434         -0.00561799
         -0.00590561         -0.00620791         -0.00652563
         -0.00685955         -0.00721048         -0.00757929
         -0.00796685         -0.00837413         -0.00880209
         -0.00925177         -0.00972424          -0.0102206
          -0.0107421            -0.01129          -0.0118654
          -0.0124698          -0.0131045          -0.0137711
          -0.0144709          -0.0152057           -0.015977
          -0.0167864          -0.0176359           -0.018527
          -0.0194618          -0.0204421          -0.0214698
           -0.022547          -0.0236756          -0.0248578
          -0.0260956          -0.0273909           -0.028746
          -0.0301628          -0.0316433          -0.0331893
          -0.0348026          -0.0364849          -0.0382377
          -0.0400621          -0.0419591          -0.0439295
          -0.0459734          -0.0480906          -0.0502804
          -0.0525416          -0.0548721           -0.057269
          -0.0597287          -0.0622466          -0.0648169
          -0.0674327          -0.0700859           -0.072767
          -0.0754652          -0.0781682          -0.0808624
          -0.0835325          -0.0861622          -0.0887338
          -0.0912285          -0.0936265          -0.0959078
          -0.0980518           -0.100038           -0.101846
           -0.103458           -0.104854           -0.106021
           -0.106943            -0.10761           -0.108013
           -0.108148           -0.108013            -0.10761
           -0.106943           -0.106021           -0.104854
           -0.103458           -0.101846           -0.100038
          -0.0980518          -0.0959078          -0.0936266
          -0.0912285          -0.0887338          -0.0861622
          -0.0835325          -0.0808624          -0.0781682
          -0.0754652           -0.072767          -0.0700859
          -0.0674327          -0.0648169          -0.0622466
          -0.0597288           -0.057269          -0.0548721
          -0.0525417          -0.0502805          -0.0480906
          -0.0459734          -0.0439295          -0.0419592
          -0.0400621          -0.0382377           -0.036485
          -0.0348026          -0.0331893          -0.0316433
          -0.0301629          -0.0287461           -0.027391